TITLE = "Generated from ../MESH/Convergence_0000000000.hmesh and Convergence_0000001800.hsol"
VARIABLES = "x","y","z","veloT_x","veloT_y","veloT_z","slr_4","velo_x","velo_y","velo_z"
ZONE I=6, J=6, K=1, F=POINT
  0.4000000000E+00  0.1000000000E+01  0.0000000000E+00 -0.1225497360E-01  0.2867934635E-19  0.7521706099E-02  0.6099376057E+15 -0.1197705477E-01  0.2905224779E-19  0.7030654581E-02
  0.3530110648E+00  0.1000000000E+01  0.0000000000E+00 -0.1361021458E-02  0.1067675344E-19 -0.4789754069E-03  0.6099376057E+15 -0.1567929779E-02  0.8950802480E-20 -0.6107683874E-03
  0.2570463033E+00  0.1000000000E+01  0.0000000000E+00  0.2166763773E-03  0.1654795328E-20  0.2185541548E-02  0.6099376057E+15 -0.1053427769E-03  0.1344072030E-20  0.2228028380E-02
  0.1429536967E+00  0.1000000000E+01  0.0000000000E+00 -0.8583936093E-03  0.2917741392E-21 -0.1128762042E-02  0.6099376057E+15 -0.1020685854E-02  0.2334296887E-21 -0.1121867208E-02
  0.4698893521E-01  0.1000000000E+01  0.0000000000E+00  0.1775903710E-02 -0.1970810036E-20  0.1877526403E-02  0.6099376057E+15  0.1655126487E-02 -0.2035904036E-20  0.1901175771E-02
  0.0000000000E+00  0.1000000000E+01  0.0000000000E+00 -0.7517812402E-02  0.1321851010E-22  0.2100726073E-02  0.6099376057E+15 -0.7523286201E-02  0.1046571719E-22  0.2106742183E-02
  0.4000000000E+00  0.1000000000E+01  0.4698893521E-01  0.2569105090E+00  0.2628795745E-17 -0.3904327341E-01  0.6099376057E+15  0.2571415477E+00  0.2627701432E-17 -0.3115798425E-01
  0.3530110648E+00  0.1000000000E+01  0.4698893521E-01  0.1204093930E+00  0.2272898437E-17 -0.1787252952E-02  0.6099376057E+15  0.1197379448E+00  0.2272271450E-17  0.4768563447E-02
  0.2570463033E+00  0.1000000000E+01  0.4698893521E-01  0.9778806806E-01  0.7240498335E-18 -0.1305573441E-01  0.6099376057E+15  0.9743014262E-01  0.7302698378E-18 -0.9240399038E-02
  0.1429536967E+00  0.1000000000E+01  0.4698893521E-01  0.7091549838E-02  0.9070988132E-19 -0.8223290725E-02  0.6099376057E+15  0.6664741786E-02  0.9024765881E-19 -0.7186405002E-02
  0.4698893521E-01  0.1000000000E+01  0.4698893521E-01 -0.1926497827E-03  0.3433564253E-21 -0.9235011960E-02  0.6099376057E+15 -0.9795224074E-03 -0.4898371018E-21 -0.8772303706E-02
  0.0000000000E+00  0.1000000000E+01  0.4698893521E-01 -0.1821356909E-01  0.9100349231E-21  0.2395952880E-02  0.6099376057E+15 -0.1819792226E-01  0.8903425162E-21  0.2481480989E-02
  0.4000000000E+00  0.1000000000E+01  0.1429536967E+00  0.5370916264E+00  0.8555403722E-17 -0.1124556091E+00  0.6099376057E+15  0.5417106757E+00  0.8617217457E-17 -0.8857409417E-01
  0.3530110648E+00  0.1000000000E+01  0.1429536967E+00  0.2914970051E+00  0.4828629952E-17 -0.1476985464E+00  0.6099376057E+15  0.2951315722E+00  0.4688239653E-17 -0.1267151255E+00
  0.2570463033E+00  0.1000000000E+01  0.1429536967E+00  0.2137900475E+00  0.1383616827E-17 -0.8762195113E-01  0.6099376057E+15  0.2185958946E+00  0.1394204347E-17 -0.7326432372E-01
  0.1429536967E+00  0.1000000000E+01  0.1429536967E+00  0.3501629908E-01  0.2734845590E-18 -0.1067377329E+00  0.6099376057E+15  0.3873714636E-01  0.2772753552E-18 -0.1009924485E+00
  0.4698893521E-01  0.1000000000E+01  0.1429536967E+00 -0.3680851537E-02  0.1451870602E-19 -0.1150722252E-01  0.6099376057E+15 -0.3326231587E-02  0.8841452135E-20 -0.1033432689E-01
  0.0000000000E+00  0.1000000000E+01  0.1429536967E+00 -0.2137882823E-01  0.1657972771E-21 -0.1186775670E-02  0.6099376057E+15 -0.2130047666E-01 -0.7977601840E-22 -0.1042227666E-02
  0.4000000000E+00  0.1000000000E+01  0.2570463033E+00  0.5451444802E+00  0.1176828823E-17 -0.3332001995E+00  0.6099376057E+15  0.5587102606E+00  0.1191782892E-17 -0.2996948213E+00
  0.3530110648E+00  0.1000000000E+01  0.2570463033E+00  0.3969143887E+00  0.1416080646E-18 -0.3742640126E+00  0.6099376057E+15  0.4118362403E+00  0.5402573184E-18 -0.3465580454E+00
  0.2570463033E+00  0.1000000000E+01  0.2570463033E+00  0.2581263057E+00  0.1454872663E-18 -0.2482596921E+00  0.6099376057E+15  0.2744058901E+00  0.1432189523E-18 -0.2340270503E+00
  0.1429536967E+00  0.1000000000E+01  0.2570463033E+00  0.8172669449E-01  0.3887851699E-18 -0.2546076407E+00  0.6099376057E+15  0.9332143947E-01  0.3871553726E-18 -0.2503326034E+00
  0.4698893521E-01  0.1000000000E+01  0.2570463033E+00  0.1331365914E-01  0.5866378991E-18 -0.4838885543E-01  0.6099376057E+15  0.1670762227E-01  0.5962507546E-18 -0.4766027495E-01
  0.0000000000E+00  0.1000000000E+01  0.2570463033E+00 -0.1423380636E-01 -0.4035053633E-20 -0.1320898424E-02  0.6099376057E+15 -0.1421426830E-01 -0.3383590040E-20 -0.1141117273E-02
  0.4000000000E+00  0.1000000000E+01  0.3530110648E+00  0.5243710973E+00  0.6149815267E-18 -0.5177786246E+00  0.6099376057E+15  0.5483677675E+00  0.5988629385E-18 -0.4863218459E+00
  0.3530110648E+00  0.1000000000E+01  0.3530110648E+00  0.3753549137E+00  0.3183999551E-18 -0.5347775796E+00  0.6099376057E+15  0.4060932750E+00  0.3232024877E-18 -0.5098445832E+00
  0.2570463033E+00  0.1000000000E+01  0.3530110648E+00  0.2509073367E+00 -0.5299165031E-18 -0.4047857572E+00  0.6099376057E+15  0.2794577098E+00 -0.6759953651E-18 -0.3946416002E+00
  0.1429536967E+00  0.1000000000E+01  0.3530110648E+00  0.8679330116E-01  0.4779632985E-18 -0.3713238990E+00  0.6099376057E+15  0.1020358713E+00  0.4629400811E-18 -0.3693926893E+00
  0.4698893521E-01  0.1000000000E+01  0.3530110648E+00  0.1893438754E-01  0.1065782971E-18 -0.1056011910E+00  0.6099376057E+15  0.2357610940E-01  0.1055170517E-18 -0.1054468205E+00
  0.0000000000E+00  0.1000000000E+01  0.3530110648E+00 -0.1424094176E-01  0.4560163530E-20 -0.1848319236E-02  0.6099376057E+15 -0.1432487734E-01  0.4912590830E-20 -0.1586877874E-02
  0.4000000000E+00  0.1000000000E+01  0.4000000000E+00  0.4886572376E+00  0.2285822761E-17 -0.5931866259E+00  0.6099376057E+15  0.5165992123E+00  0.2287704582E-17 -0.5654746457E+00
  0.3530110648E+00  0.1000000000E+01  0.4000000000E+00  0.3896155245E+00  0.1699185917E-17 -0.6119986557E+00  0.6099376057E+15  0.4265568363E+00  0.1638165395E-17 -0.5881935813E+00
  0.2570463033E+00  0.1000000000E+01  0.4000000000E+00  0.2467392290E+00 -0.8145060421E-18 -0.4851876811E+00  0.6099376057E+15  0.2803170064E+00 -0.7333959534E-18 -0.4695755928E+00
  0.1429536967E+00  0.1000000000E+01  0.4000000000E+00  0.9667624411E-01  0.3951659841E-18 -0.4362679971E+00  0.6099376057E+15  0.1141549655E+00  0.4544776978E-18 -0.4301617885E+00
  0.4698893521E-01  0.1000000000E+01  0.4000000000E+00  0.1610956182E-01 -0.4015592570E-20 -0.1326218213E+00  0.6099376057E+15  0.2177426605E-01 -0.6196075912E-20 -0.1321033549E+00
  0.0000000000E+00  0.1000000000E+01  0.4000000000E+00 -0.6421127441E-02  0.8054284695E-20 -0.3257861605E-02  0.6099376057E+15 -0.6843710682E-02  0.7912067199E-20 -0.2970977649E-02
ZONE I=6, J=6, K=1, F=POINT
  0.8000000000E+00  0.1000000000E+01  0.0000000000E+00  0.1648900004E-01 -0.7532181109E-19 -0.1137972414E-01  0.6099376057E+15  0.1713234632E-01 -0.7852711795E-19 -0.1194095260E-01
  0.7530110648E+00  0.1000000000E+01  0.0000000000E+00  0.6781343397E-03  0.6403754823E-19  0.5874796306E-02  0.6099376057E+15  0.1468849894E-02  0.7755542243E-19  0.5726270868E-02
  0.6570463033E+00  0.1000000000E+01  0.0000000000E+00 -0.1767896897E-02  0.2595644691E-20  0.1079868633E-03  0.6099376057E+15 -0.9418054263E-03  0.1280504368E-19  0.1370428664E-03
  0.5429536967E+00  0.1000000000E+01  0.0000000000E+00 -0.3610035057E-03 -0.5359314297E-20  0.6607902672E-02  0.6099376057E+15  0.7312535961E-03  0.2167991042E-19  0.6497749324E-02
  0.4469889352E+00  0.1000000000E+01  0.0000000000E+00 -0.2690254530E-02 -0.5821487558E-19  0.5309998018E-03  0.6099376057E+15 -0.1654323330E-02 -0.2864069413E-19  0.3103591857E-03
  0.4000000000E+00  0.1000000000E+01  0.0000000000E+00  0.1433882738E-01  0.3234149620E-19  0.7198950426E-02  0.6099376057E+15  0.1480612915E-01  0.3270095117E-19  0.6740591194E-02
  0.8000000000E+00  0.1000000000E+01  0.4698893521E-01  0.3155464567E+00 -0.2600658336E-16  0.1616565906E-01  0.6099376057E+15  0.3145140303E+00 -0.2598877466E-16  0.2923595981E-01
  0.7530110648E+00  0.1000000000E+01  0.4698893521E-01  0.5118534443E+00 -0.2546036639E-16 -0.4414964501E-01  0.6099376057E+15  0.5117530370E+00 -0.2547191554E-16 -0.3094771572E-01
  0.6570463033E+00  0.1000000000E+01  0.4698893521E-01  0.2982480375E+00 -0.5588820344E-17 -0.1500569292E-01  0.6099376057E+15  0.2984619724E+00 -0.5568187121E-17 -0.2374112375E-02
  0.5429536967E+00  0.1000000000E+01  0.4698893521E-01  0.3242858731E+00  0.4222430435E-17 -0.7400995906E-02  0.6099376057E+15  0.3255748365E+00  0.4251751457E-17  0.4699619862E-02
  0.4469889352E+00  0.1000000000E+01  0.4698893521E-01  0.1928646325E+00  0.3672435103E-17  0.2756613060E-02  0.6099376057E+15  0.1950168169E+00  0.3650835161E-17  0.1212216359E-01
  0.4000000000E+00  0.1000000000E+01  0.4698893521E-01  0.2986545277E+00  0.2389498185E-17 -0.3980364675E-01  0.6099376057E+15  0.2993497831E+00  0.2385653483E-17 -0.3190588949E-01
  0.8000000000E+00  0.1000000000E+01  0.1429536967E+00  0.8606219202E+00 -0.5619661528E-16 -0.3030657923E+00  0.6099376057E+15  0.8542335023E+00 -0.5636272502E-16 -0.2805507587E+00
  0.7530110648E+00  0.1000000000E+01  0.1429536967E+00  0.1181310704E+01 -0.3688777053E-16 -0.1732832843E+00  0.6099376057E+15  0.1178340596E+01 -0.3704215994E-16 -0.1470659976E+00
  0.6570463033E+00  0.1000000000E+01  0.1429536967E+00  0.7842822796E+00 -0.6933006874E-17 -0.1903629467E+00  0.6099376057E+15  0.7838151380E+00 -0.6892491342E-17 -0.1593737056E+00
  0.5429536967E+00  0.1000000000E+01  0.1429536967E+00  0.7412152265E+00  0.8625608495E-17 -0.6000074558E-01  0.6099376057E+15  0.7450220967E+00  0.8751565848E-17 -0.3002707619E-01
  0.4469889352E+00  0.1000000000E+01  0.1429536967E+00  0.4559432636E+00  0.8605272032E-17 -0.1381096751E+00  0.6099376057E+15  0.4624860011E+00  0.8433190166E-17 -0.1119278178E+00
  0.4000000000E+00  0.1000000000E+01  0.1429536967E+00  0.5881490503E+00  0.9265106028E-17 -0.1119151803E+00  0.6099376057E+15  0.5925956317E+00  0.9326622322E-17 -0.8804302394E-01
  0.8000000000E+00  0.1000000000E+01  0.2570463033E+00  0.1500405652E+01 -0.1556438377E-16 -0.7272332180E+00  0.6099376057E+15  0.1485883625E+01 -0.1559668449E-16 -0.7009371973E+00
  0.7530110648E+00  0.1000000000E+01  0.2570463033E+00  0.1446084655E+01 -0.1209875470E-16 -0.5043573420E+00  0.6099376057E+15  0.1432717912E+01 -0.1161166011E-16 -0.4744694218E+00
  0.6570463033E+00  0.1000000000E+01  0.2570463033E+00  0.1095175501E+01 -0.7551423855E-17 -0.4939713722E+00  0.6099376057E+15  0.1090703740E+01 -0.7431256246E-17 -0.4570415240E+00
  0.5429536967E+00  0.1000000000E+01  0.2570463033E+00  0.8546171822E+00  0.1447670617E-18 -0.2721363711E+00  0.6099376057E+15  0.8609801272E+00  0.2355632987E-18 -0.2327482633E+00
  0.4469889352E+00  0.1000000000E+01  0.2570463033E+00  0.5903711688E+00  0.9107169105E-18 -0.3814562077E+00  0.6099376057E+15  0.6020772176E+00  0.1382339608E-17 -0.3442913953E+00
  0.4000000000E+00  0.1000000000E+01  0.2570463033E+00  0.5751570387E+00  0.1206096972E-17 -0.3325765988E+00  0.6099376057E+15  0.5893548063E+00  0.1222206090E-17 -0.2991090431E+00
  0.8000000000E+00  0.1000000000E+01  0.3530110648E+00  0.1422714070E+01 -0.3078064365E-17 -0.1042907179E+01  0.6099376057E+15  0.1404101727E+01 -0.3067208834E-17 -0.1015240398E+01
  0.7530110648E+00  0.1000000000E+01  0.3530110648E+00  0.1423279813E+01  0.3215574977E-17 -0.8588284373E+00  0.6099376057E+15  0.1405299359E+01  0.2187695189E-17 -0.8299322527E+00
  0.6570463033E+00  0.1000000000E+01  0.3530110648E+00  0.1091364766E+01 -0.5520744155E-17 -0.7437356586E+00  0.6099376057E+15  0.1081203925E+01 -0.5634854755E-17 -0.7103435850E+00
  0.5429536967E+00  0.1000000000E+01  0.3530110648E+00  0.8455240698E+00 -0.6031269944E-17 -0.4966777494E+00  0.6099376057E+15  0.8507478452E+00 -0.6675763773E-17 -0.4563013268E+00
  0.4469889352E+00  0.1000000000E+01  0.3530110648E+00  0.5470223525E+00  0.2088757176E-18 -0.5547761716E+00  0.6099376057E+15  0.5656027610E+00 -0.6761064935E-19 -0.5183063614E+00
  0.4000000000E+00  0.1000000000E+01  0.3530110648E+00  0.5565756535E+00  0.5903451045E-18 -0.5176313488E+00  0.6099376057E+15  0.5813354447E+00  0.5713317912E-18 -0.4861414696E+00
  0.8000000000E+00  0.1000000000E+01  0.4000000000E+00  0.1405873952E+01 -0.1171343408E-16 -0.1225017360E+01  0.6099376057E+15  0.1383825211E+01 -0.1171036543E-16 -0.1202543815E+01
  0.7530110648E+00  0.1000000000E+01  0.4000000000E+00  0.1286556680E+01 -0.7070935656E-17 -0.9833265446E+00  0.6099376057E+15  0.1267228241E+01 -0.7247654115E-17 -0.9568937090E+00
  0.6570463033E+00  0.1000000000E+01  0.4000000000E+00  0.1031143679E+01 -0.4311903274E-17 -0.8601049280E+00  0.6099376057E+15  0.1017362296E+01 -0.4165643507E-17 -0.8269604685E+00
  0.5429536967E+00  0.1000000000E+01  0.4000000000E+00  0.7877835679E+00  0.2480505982E-17 -0.6233255341E+00  0.6099376057E+15  0.7923539842E+00  0.2898360474E-17 -0.5837620475E+00
  0.4469889352E+00  0.1000000000E+01  0.4000000000E+00  0.5715100269E+00  0.2633610488E-17 -0.6450034766E+00  0.6099376057E+15  0.5953534218E+00  0.3030938235E-17 -0.6122062440E+00
  0.4000000000E+00  0.1000000000E+01  0.4000000000E+00  0.5001641896E+00  0.2307910389E-17 -0.5924995669E+00  0.6099376057E+15  0.5286615588E+00  0.2308033956E-17 -0.5647517055E+00
ZONE I=6, J=6, K=1, F=POINT
  0.1200000000E+01  0.1000000000E+01  0.0000000000E+00 -0.3297677234E-01  0.6217621686E-19  0.3634652035E-01  0.6099376057E+15 -0.3238252140E-01  0.6412083220E-19  0.3619171072E-01
  0.1153011065E+01  0.1000000000E+01  0.0000000000E+00 -0.6222197598E-02 -0.2473945812E-18 -0.9765753161E-02  0.6099376057E+15 -0.5659416585E-02 -0.2320673591E-18 -0.9731125443E-02
  0.1057046303E+01  0.1000000000E+01  0.0000000000E+00  0.1256034622E-02  0.2587666701E-20  0.5997669275E-02  0.6099376057E+15  0.1652593500E-02  0.1258511654E-19  0.5999372404E-02
  0.9429536967E+00  0.1000000000E+01  0.0000000000E+00 -0.3071786675E-02  0.1593513475E-19 -0.8322487533E-02  0.6099376057E+15 -0.2719710306E-02  0.1265941569E-19 -0.8234197824E-02
  0.8469889352E+00  0.1000000000E+01  0.0000000000E+00  0.2525165823E-02 -0.1234466014E-19  0.5280086139E-02  0.6099376057E+15  0.2945325129E-02 -0.1445150099E-19  0.5148214485E-02
  0.8000000000E+00  0.1000000000E+01  0.0000000000E+00 -0.2823578177E-01 -0.8489722780E-19 -0.1086982907E-01  0.6099376057E+15 -0.2778095370E-01 -0.8829060414E-19 -0.1140058587E-01
  0.1200000000E+01  0.1000000000E+01  0.4698893521E-01  0.1976019889E+01 -0.4112374163E-16 -0.1830283524E+00  0.6099376057E+15  0.1976049365E+01 -0.4110326359E-16 -0.1906730170E+00
  0.1153011065E+01  0.1000000000E+01  0.4698893521E-01  0.1325504951E+01 -0.2608281601E-16 -0.3760922842E-01  0.6099376057E+15  0.1324694937E+01 -0.2604981667E-16 -0.4426930355E-01
  0.1057046303E+01  0.1000000000E+01  0.4698893521E-01  0.1245775082E+01 -0.1216677263E-16 -0.7551224038E-01  0.6099376057E+15  0.1244152543E+01 -0.1219316396E-16 -0.7892653798E-01
  0.9429536967E+00  0.1000000000E+01  0.4698893521E-01  0.7020400033E+00 -0.1627206616E-16 -0.6414724640E-01  0.6099376057E+15  0.6995789341E+00 -0.1620064772E-16 -0.6069943921E-01
  0.8469889352E+00  0.1000000000E+01  0.4698893521E-01  0.6343607418E+00 -0.3027436385E-16 -0.6808548342E-01  0.6099376057E+15  0.6324296196E+00 -0.3019829162E-16 -0.5756813668E-01
  0.8000000000E+00  0.1000000000E+01  0.4698893521E-01  0.2549294510E+00 -0.2531463669E-16  0.1822565602E-01  0.6099376057E+15  0.2542556233E+00 -0.2530631598E-16  0.3124941426E-01
  0.1200000000E+01  0.1000000000E+01  0.1429536967E+00  0.4313110863E+01 -0.5756819401E-16 -0.4879799668E+00  0.6099376057E+15  0.4311779375E+01 -0.5743156289E-16 -0.5033507421E+00
  0.1153011065E+01  0.1000000000E+01  0.1429536967E+00  0.2942691150E+01 -0.6783669014E-16 -0.6923454698E+00  0.6099376057E+15  0.2936864172E+01 -0.6814116350E-16 -0.7038051740E+00
  0.1057046303E+01  0.1000000000E+01  0.1429536967E+00  0.2710705137E+01 -0.4079544283E-16 -0.4876090362E+00  0.6099376057E+15  0.2700713460E+01 -0.4078166232E-16 -0.4884490245E+00
  0.9429536967E+00  0.1000000000E+01  0.1429536967E+00  0.1625619221E+01 -0.3669038444E-16 -0.6177239464E+00  0.6099376057E+15  0.1614631403E+01 -0.3667586119E-16 -0.6053247886E+00
  0.8469889352E+00  0.1000000000E+01  0.1429536967E+00  0.1452261158E+01 -0.5307743748E-16 -0.3098072235E+00  0.6099376057E+15  0.1443520196E+01 -0.5297480085E-16 -0.2903381033E+00
  0.8000000000E+00  0.1000000000E+01  0.1429536967E+00  0.7776277010E+00 -0.5839010445E-16 -0.3046186125E+00  0.6099376057E+15  0.7722029974E+00 -0.5858743302E-16 -0.2820897159E+00
  0.1200000000E+01  0.1000000000E+01  0.2570463033E+00  0.3849752426E+01 -0.1473061376E-16 -0.1366824423E+01  0.6099376057E+15  0.3837165784E+01 -0.1466953982E-16 -0.1370414654E+01
  0.1153011065E+01  0.1000000000E+01  0.2570463033E+00  0.3422396578E+01 -0.5162725507E-16 -0.1610449644E+01  0.6099376057E+15  0.3406398742E+01 -0.4982857118E-16 -0.1612124698E+01
  0.1057046303E+01  0.1000000000E+01  0.2570463033E+00  0.2825207605E+01 -0.4182650954E-16 -0.1226327965E+01  0.6099376057E+15  0.2802034727E+01 -0.4187303391E-16 -0.1220502230E+01
  0.9429536967E+00  0.1000000000E+01  0.2570463033E+00  0.2123918485E+01 -0.3788300844E-16 -0.1327473592E+01  0.6099376057E+15  0.2102784949E+01 -0.3673076501E-16 -0.1310585692E+01
  0.8469889352E+00  0.1000000000E+01  0.2570463033E+00  0.1775120870E+01 -0.1758914788E-16 -0.7743760449E+00  0.6099376057E+15  0.1761130183E+01 -0.1776254390E-16 -0.7507214525E+00
  0.8000000000E+00  0.1000000000E+01  0.2570463033E+00  0.1462158593E+01 -0.1573587341E-16 -0.7295243368E+00  0.6099376057E+15  0.1448537594E+01 -0.1574508467E-16 -0.7029707692E+00
  0.1200000000E+01  0.1000000000E+01  0.3530110648E+00  0.3629737986E+01  0.1267687689E-16 -0.2268048206E+01  0.6099376057E+15  0.3618677280E+01  0.1270736420E-16 -0.2252655709E+01
  0.1153011065E+01  0.1000000000E+01  0.3530110648E+00  0.3029985924E+01 -0.7372056180E-17 -0.2182949551E+01  0.6099376057E+15  0.3013400751E+01 -0.7121401523E-17 -0.2169432121E+01
  0.1057046303E+01  0.1000000000E+01  0.3530110648E+00  0.2572815030E+01 -0.2351915878E-16 -0.1820513831E+01  0.6099376057E+15  0.2545155477E+01 -0.2365630445E-16 -0.1808507830E+01
  0.9429536967E+00  0.1000000000E+01  0.3530110648E+00  0.1943228211E+01 -0.2580495403E-16 -0.1689703475E+01  0.6099376057E+15  0.1914497686E+01 -0.2496650381E-16 -0.1673707993E+01
  0.8469889352E+00  0.1000000000E+01  0.3530110648E+00  0.1729293974E+01 -0.7616665519E-17 -0.1187790397E+01  0.6099376057E+15  0.1708179304E+01 -0.8444485843E-17 -0.1164098506E+01
  0.8000000000E+00  0.1000000000E+01  0.3530110648E+00  0.1375367361E+01 -0.3019312345E-17 -0.1043094613E+01  0.6099376057E+15  0.1357215729E+01 -0.2996045518E-17 -0.1015493197E+01
  0.1200000000E+01  0.1000000000E+01  0.4000000000E+00  0.3167817457E+01  0.1208203135E-16 -0.2450343596E+01  0.6099376057E+15  0.3158421236E+01  0.1211400830E-16 -0.2428854352E+01
  0.1153011065E+01  0.1000000000E+01  0.4000000000E+00  0.2932323101E+01  0.4663445402E-17 -0.2547422318E+01  0.6099376057E+15  0.2917325538E+01  0.4314810302E-17 -0.2527732076E+01
  0.1057046303E+01  0.1000000000E+01  0.4000000000E+00  0.2346868380E+01 -0.1519870394E-16 -0.2058474520E+01  0.6099376057E+15  0.2319654053E+01 -0.1538540338E-16 -0.2041036656E+01
  0.9429536967E+00  0.1000000000E+01  0.4000000000E+00  0.1855591436E+01 -0.2675975614E-16 -0.1907815348E+01  0.6099376057E+15  0.1824992030E+01 -0.2612533562E-16 -0.1891057594E+01
  0.8469889352E+00  0.1000000000E+01  0.4000000000E+00  0.1552888427E+01 -0.1810596869E-16 -0.1332039107E+01  0.6099376057E+15  0.1528452328E+01 -0.1832929045E-16 -0.1313129280E+01
  0.8000000000E+00  0.1000000000E+01  0.4000000000E+00  0.1401628414E+01 -0.1169515229E-16 -0.1228046093E+01  0.6099376057E+15  0.1378661599E+01 -0.1168756363E-16 -0.1205331942E+01
ZONE I=6, J=6, K=1, F=POINT
  0.1600000000E+01  0.1000000000E+01  0.0000000000E+00  0.1291342497E+00 -0.8638542250E-18 -0.7308231061E-01  0.6099376057E+15  0.1290125946E+00 -0.9899154445E-18 -0.7253527592E-01
  0.1553011065E+01  0.1000000000E+01  0.0000000000E+00  0.9097256577E-02 -0.1264807322E-17  0.4518653652E-01  0.6099376057E+15  0.9536464338E-02 -0.1317494823E-17  0.4514533515E-01
  0.1457046303E+01  0.1000000000E+01  0.0000000000E+00 -0.8799348054E-02 -0.4084722396E-19 -0.3380522893E-02  0.6099376057E+15 -0.8327455832E-02 -0.7277795793E-19 -0.3302325349E-02
  0.1342953697E+01  0.1000000000E+01  0.0000000000E+00  0.3950386553E-02  0.3326090115E-18  0.2993139430E-01  0.6099376057E+15  0.4532943313E-02  0.3656684767E-18  0.2987029021E-01
  0.1246988935E+01  0.1000000000E+01  0.0000000000E+00 -0.8849464058E-02  0.1093127445E-18 -0.8347435328E-02  0.6099376057E+15 -0.8368535702E-02  0.1192076241E-18 -0.8407763357E-02
  0.1200000000E+01  0.1000000000E+01  0.0000000000E+00  0.5653016918E-01  0.6619786064E-19  0.3641374927E-01  0.6099376057E+15  0.5694509655E-01  0.6835291358E-19  0.3626560655E-01
  0.1600000000E+01  0.1000000000E+01  0.4698893521E-01  0.2846440094E+01 -0.8941835087E-16  0.2036333319E+00  0.6099376057E+15  0.2843429819E+01 -0.8933775070E-16  0.1783213084E+00
  0.1553011065E+01  0.1000000000E+01  0.4698893521E-01  0.3251730399E+01 -0.4590967638E-16 -0.2953803218E+00  0.6099376057E+15  0.3250041217E+01 -0.4593119617E-16 -0.3183221598E+00
  0.1457046303E+01  0.1000000000E+01  0.4698893521E-01  0.2224951761E+01 -0.6008994220E-17 -0.8645253526E-01  0.6099376057E+15  0.2224425768E+01 -0.6007806646E-17 -0.1039252896E+00
  0.1342953697E+01  0.1000000000E+01  0.4698893521E-01  0.2207693537E+01  0.3071006840E-16 -0.5282961985E-01  0.6099376057E+15  0.2207136558E+01  0.3069175139E-16 -0.6730767521E-01
  0.1246988935E+01  0.1000000000E+01  0.4698893521E-01  0.1680949381E+01 -0.4825328077E-17 -0.7964343863E-02  0.6099376057E+15  0.1679786880E+01 -0.4862110747E-17 -0.1765724403E-01
  0.1200000000E+01  0.1000000000E+01  0.4698893521E-01  0.2074091333E+01 -0.4534678563E-16 -0.1886779253E+00  0.6099376057E+15  0.2072258981E+01 -0.4529483942E-16 -0.1959950487E+00
  0.1600000000E+01  0.1000000000E+01  0.1429536967E+00  0.5488127017E+01 -0.2676509443E-15 -0.2040147941E+01  0.6099376057E+15  0.5470623084E+01 -0.2678320212E-15 -0.2067004809E+01
  0.1553011065E+01  0.1000000000E+01  0.1429536967E+00  0.7070342292E+01 -0.1545165879E-15 -0.1128460057E+01  0.6099376057E+15  0.7063251840E+01 -0.1542140837E-15 -0.1154966367E+01
  0.1457046303E+01  0.1000000000E+01  0.1429536967E+00  0.4912988299E+01  0.3118864466E-16 -0.9726135058E+00  0.6099376057E+15  0.4910285548E+01  0.3078617306E-16 -0.9967337692E+00
  0.1342953697E+01  0.1000000000E+01  0.1429536967E+00  0.4908994728E+01  0.1063700068E-15 -0.1457587658E+00  0.6099376057E+15  0.4905777256E+01  0.1062373430E-15 -0.1680309260E+00
  0.1246988935E+01  0.1000000000E+01  0.1429536967E+00  0.3679213127E+01  0.2879619917E-16 -0.6115936426E+00  0.6099376057E+15  0.3672383447E+01  0.2956152154E-16 -0.6301126781E+00
  0.1200000000E+01  0.1000000000E+01  0.1429536967E+00  0.4476817757E+01 -0.6171771914E-16 -0.4830459247E+00  0.6099376057E+15  0.4466386842E+01 -0.6147475183E-16 -0.4989333914E+00
  0.1600000000E+01  0.1000000000E+01  0.2570463033E+00  0.9413610965E+01  0.6487812891E-16 -0.4251868091E+01  0.6099376057E+15  0.9417482816E+01  0.6483299532E-16 -0.4256615336E+01
  0.1553011065E+01  0.1000000000E+01  0.2570463033E+00  0.8234279700E+01  0.8903543971E-16 -0.2951792044E+01  0.6099376057E+15  0.8231353923E+01  0.8892475330E-16 -0.2952957177E+01
  0.1457046303E+01  0.1000000000E+01  0.2570463033E+00  0.6787784627E+01  0.1721023758E-15 -0.2484019652E+01  0.6099376057E+15  0.6785941219E+01  0.1718392239E-15 -0.2487472131E+01
  0.1342953697E+01  0.1000000000E+01  0.2570463033E+00  0.5271251258E+01  0.1333932513E-15 -0.1037251649E+01  0.6099376057E+15  0.5269300654E+01  0.1332201343E-15 -0.1041786132E+01
  0.1246988935E+01  0.1000000000E+01  0.2570463033E+00  0.4210912489E+01  0.3951737329E-16 -0.1606080804E+01  0.6099376057E+15  0.4201274847E+01  0.3894985323E-16 -0.1610097447E+01
  0.1200000000E+01  0.1000000000E+01  0.2570463033E+00  0.3890541323E+01 -0.1506445085E-16 -0.1358718482E+01  0.6099376057E+15  0.3877255301E+01 -0.1497407493E-16 -0.1364243720E+01
  0.1600000000E+01  0.1000000000E+01  0.3530110648E+00  0.7276205529E+01  0.1241906656E-15 -0.5071970682E+01  0.6099376057E+15  0.7272842808E+01  0.1242018988E-15 -0.5061306633E+01
  0.1553011065E+01  0.1000000000E+01  0.3530110648E+00  0.7345547864E+01  0.1403546803E-15 -0.4665213260E+01  0.6099376057E+15  0.7342474812E+01  0.1403394086E-15 -0.4655222194E+01
  0.1457046303E+01  0.1000000000E+01  0.3530110648E+00  0.6065425815E+01  0.1603825256E-15 -0.3685470186E+01  0.6099376057E+15  0.6065179423E+01  0.1600634135E-15 -0.3674478429E+01
  0.1342953697E+01  0.1000000000E+01  0.3530110648E+00  0.4918270834E+01  0.1315136198E-15 -0.2416932287E+01  0.6099376057E+15  0.4915529152E+01  0.1312954347E-15 -0.2403862621E+01
  0.1246988935E+01  0.1000000000E+01  0.3530110648E+00  0.3705540516E+01  0.4638963549E-16 -0.2356409789E+01  0.6099376057E+15  0.3696199496E+01  0.4663921194E-16 -0.2340068702E+01
  0.1200000000E+01  0.1000000000E+01  0.3530110648E+00  0.3705289943E+01  0.1275189950E-16 -0.2268824707E+01  0.6099376057E+15  0.3692787084E+01  0.1276798474E-16 -0.2253038247E+01
  0.1600000000E+01  0.1000000000E+01  0.4000000000E+00  0.7256095360E+01  0.1100586565E-15 -0.5961830586E+01  0.6099376057E+15  0.7254893814E+01  0.1100386814E-15 -0.5958582059E+01
  0.1553011065E+01  0.1000000000E+01  0.4000000000E+00  0.6472476471E+01  0.1388838534E-15 -0.4785152148E+01  0.6099376057E+15  0.6469949943E+01  0.1390542264E-15 -0.4781702206E+01
  0.1457046303E+01  0.1000000000E+01  0.4000000000E+00  0.5757392800E+01  0.1373809899E-15 -0.4222924261E+01  0.6099376057E+15  0.5754865355E+01  0.1374995090E-15 -0.4213943996E+01
  0.1342953697E+01  0.1000000000E+01  0.4000000000E+00  0.4468790434E+01  0.1291908382E-15 -0.2739983138E+01  0.6099376057E+15  0.4465041040E+01  0.1289935331E-15 -0.2726413559E+01
  0.1246988935E+01  0.1000000000E+01  0.4000000000E+00  0.3626987970E+01  0.3955197464E-16 -0.2810831346E+01  0.6099376057E+15  0.3615429642E+01  0.3968197859E-16 -0.2790711632E+01
  0.1200000000E+01  0.1000000000E+01  0.4000000000E+00  0.3142572585E+01  0.1234159041E-16 -0.2439968992E+01  0.6099376057E+15  0.3134583215E+01  0.1235953091E-16 -0.2420174843E+01
ZONE I=6, J=6, K=1, F=POINT
  0.2000000000E+01  0.1000000000E+01  0.0000000000E+00  0.2402687333E+01  0.7293019937E-19  0.2123410775E+02  0.6099376057E+15  0.2430541328E+01  0.9381459365E-19  0.2215516514E+02
  0.1953011065E+01  0.1000000000E+01  0.0000000000E+00  0.1290519391E+01 -0.3735301504E-16 -0.1366745133E+00  0.6099376057E+15  0.1294208574E+01 -0.3608196566E-16 -0.1500965867E+00
  0.1857046303E+01  0.1000000000E+01  0.0000000000E+00 -0.3079655950E+00 -0.1890178774E-16  0.1521663450E+00  0.6099376057E+15 -0.3090594354E+00 -0.1940953272E-16  0.1507048146E+00
  0.1742953697E+01  0.1000000000E+01  0.0000000000E+00  0.1329748177E+00  0.2627995661E-18 -0.3836318804E-01  0.6099376057E+15  0.1336664770E+00  0.1750284303E-18 -0.3786206241E-01
  0.1646988935E+01  0.1000000000E+01  0.0000000000E+00 -0.1290603093E+00  0.3840651823E-18  0.6067991043E-01  0.6099376057E+15 -0.1286120478E+00  0.3439797076E-18  0.5978279711E-01
  0.1600000000E+01  0.1000000000E+01  0.0000000000E+00  0.8723413874E-01 -0.9417544206E-18 -0.8535506913E-01  0.6099376057E+15  0.8679573664E-01 -0.1070262277E-17 -0.8345725976E-01
  0.2000000000E+01  0.1000000000E+01  0.4698893521E-01 -0.1090500849E-01  0.7369453481E-18  0.4848228911E+02  0.6099376057E+15 -0.5349378875E-01  0.6836694657E-18  0.4865667770E+02
  0.1953011065E+01  0.1000000000E+01  0.4698893521E-01  0.1099300427E+02  0.1436273845E-15  0.1498712323E+01  0.6099376057E+15  0.1097942956E+02  0.1423727076E-15  0.1513291951E+01
  0.1857046303E+01  0.1000000000E+01  0.4698893521E-01  0.1180469482E+02  0.3122967628E-15 -0.1856516874E+01  0.6099376057E+15  0.1180592522E+02  0.3124886740E-15 -0.1861669938E+01
  0.1742953697E+01  0.1000000000E+01  0.4698893521E-01  0.5862290882E+01 -0.1465685973E-16 -0.6806894950E+00  0.6099376057E+15  0.5867197028E+01 -0.1434887961E-16 -0.6996055015E+00
  0.1646988935E+01  0.1000000000E+01  0.4698893521E-01  0.4360205363E+01 -0.1163975883E-15 -0.6628054480E+00  0.6099376057E+15  0.4358495508E+01 -0.1164769810E-15 -0.6861730687E+00
  0.1600000000E+01  0.1000000000E+01  0.4698893521E-01  0.2684653123E+01 -0.8659121643E-16  0.1891802168E+00  0.6099376057E+15  0.2690482602E+01 -0.8631118007E-16  0.1586439651E+00
  0.2000000000E+01  0.1000000000E+01  0.1429536967E+00 -0.2808728550E+00  0.2635788981E-17  0.5050255570E+02  0.6099376057E+15 -0.2563684443E+00  0.2647565020E-17  0.5043853570E+02
  0.1953011065E+01  0.1000000000E+01  0.1429536967E+00  0.2814637085E+01 -0.5128678237E-15  0.1656140031E+02  0.6099376057E+15  0.2802846781E+01 -0.5125369844E-15  0.1659481625E+02
  0.1857046303E+01  0.1000000000E+01  0.1429536967E+00  0.1273968663E+02 -0.2415637583E-15 -0.3577388339E+01  0.6099376057E+15  0.1274565759E+02 -0.2422022678E-15 -0.3579995942E+01
  0.1742953697E+01  0.1000000000E+01  0.1429536967E+00  0.9668533008E+01  0.4002807845E-16 -0.4405755093E+01  0.6099376057E+15  0.9683317968E+01  0.4074469187E-16 -0.4427110049E+01
  0.1646988935E+01  0.1000000000E+01  0.1429536967E+00  0.8630254050E+01 -0.1460145818E-15 -0.2366817507E+01  0.6099376057E+15  0.8634565138E+01 -0.1455853479E-15 -0.2392219753E+01
  0.1600000000E+01  0.1000000000E+01  0.1429536967E+00  0.5121168330E+01 -0.2839239727E-15 -0.2039468841E+01  0.6099376057E+15  0.5140525018E+01 -0.2845680928E-15 -0.2071573180E+01
  0.2000000000E+01  0.1000000000E+01  0.2570463033E+00  0.1836408504E-01  0.1061114722E-17  0.4987144961E+02  0.6099376057E+15  0.1764764567E-01  0.9963335013E-18  0.4987586240E+02