TITLE = "Generated from ../MESH/Convergence_0000000000.hmesh and Convergence_0000009800.hsol"
VARIABLES = "x","y","z","veloT_x","veloT_y","veloT_z","slr_4","velo_x","velo_y","velo_z"
ZONE I=6, J=6, K=1, F=POINT
  0.4000000000E+00  0.1000000000E+01  0.0000000000E+00  0.2508946894E+00  0.3111047087E-19  0.2466471841E-01  0.4020742086E+16  0.3456407608E+00  0.1888980956E-18  0.2629341464E-01
  0.3530110648E+00  0.1000000000E+01  0.0000000000E+00  0.2978102225E+00 -0.7361047156E-19  0.4179621879E-02  0.4020742086E+16  0.3777583935E+00 -0.1333834609E-19  0.2375393298E-02
  0.2570463033E+00  0.1000000000E+01  0.0000000000E+00  0.2528306268E+00 -0.3800482932E-19  0.1189581275E-02  0.4020742086E+16  0.3085196671E+00 -0.1299212719E-19 -0.2874521310E-02
  0.1429536967E+00  0.1000000000E+01  0.0000000000E+00  0.2388878518E+00 -0.8543828430E-20 -0.3110779456E-02  0.4020742086E+16  0.3024997720E+00 -0.1135055773E-19  0.3115388732E-02
  0.4698893521E-01  0.1000000000E+01  0.0000000000E+00  0.1810916111E+00 -0.7683963697E-20 -0.8849272209E-02  0.4020742086E+16  0.2462466114E+00  0.2786270195E-19 -0.3027219866E-01
  0.0000000000E+00  0.1000000000E+01  0.0000000000E+00  0.3834579740E-02  0.5971564983E-22 -0.1258129641E-01  0.4020742086E+16  0.2048192693E-01 -0.3440753231E-21 -0.2822536791E-01
  0.4000000000E+00  0.1000000000E+01  0.4698893521E-01  0.4679391502E+00  0.1823424920E-17  0.1193599530E+01  0.4020742086E+16  0.1382694225E+01 -0.3376646200E-17  0.8447633793E+00
  0.3530110648E+00  0.1000000000E+01  0.4698893521E-01  0.3915707479E+00 -0.1293266799E-17  0.1089444911E+01  0.4020742086E+16  0.1234613172E+01 -0.9621508548E-17  0.6243554296E+00
  0.2570463033E+00  0.1000000000E+01  0.4698893521E-01  0.3314779869E+00  0.2252298703E-17  0.7904842714E+00  0.4020742086E+16  0.9788134653E+00  0.6421619972E-18  0.2731717523E+00
  0.1429536967E+00  0.1000000000E+01  0.4698893521E-01  0.2150919533E+00  0.1327040861E-17  0.4669606784E+00  0.4020742086E+16  0.8736965421E+00  0.2724638664E-17 -0.1718231394E+00
  0.4698893521E-01  0.1000000000E+01  0.4698893521E-01  0.1452780437E+00  0.1350645557E-18  0.6755757870E-01  0.4020742086E+16  0.6529283485E+00  0.9358199102E-18 -0.5290304037E+00
  0.0000000000E+00  0.1000000000E+01  0.4698893521E-01 -0.6859440525E-02 -0.1578348681E-20 -0.1684948674E+00  0.4020742086E+16  0.1348201782E-01 -0.9587974105E-20 -0.2367543222E+00
  0.4000000000E+00  0.1000000000E+01  0.1429536967E+00  0.9469714763E+00  0.1487639196E-16  0.1394926991E+01  0.4020742086E+16  0.2145904738E+01  0.3087598308E-16  0.1106104894E+01
  0.3530110648E+00  0.1000000000E+01  0.1429536967E+00  0.9431770892E+00 -0.3762666363E-17  0.1226914709E+01  0.4020742086E+16  0.1844603734E+01 -0.2277117075E-17  0.9086768166E+00
  0.2570463033E+00  0.1000000000E+01  0.1429536967E+00  0.7456819435E+00  0.3913673687E-17  0.9487496055E+00  0.4020742086E+16  0.1556529879E+01  0.3848628204E-17  0.5121844358E+00
  0.1429536967E+00  0.1000000000E+01  0.1429536967E+00  0.7042335302E+00  0.1598059919E-17  0.5214928036E+00  0.4020742086E+16  0.1456032933E+01  0.1215962608E-17 -0.1524179315E+00
  0.4698893521E-01  0.1000000000E+01  0.1429536967E+00  0.6494015981E+00  0.7447807221E-19  0.2725035096E-01  0.4020742086E+16  0.9661513219E+00  0.2953214860E-17 -0.5845172281E+00
  0.0000000000E+00  0.1000000000E+01  0.1429536967E+00 -0.2405306564E-01 -0.6156697785E-20 -0.2223853160E+00  0.4020742086E+16 -0.3460655669E-01 -0.4650250224E-19 -0.2676397238E+00
  0.4000000000E+00  0.1000000000E+01  0.2570463033E+00  0.1154349893E+01  0.4982801168E-17  0.4333393927E+00  0.4020742086E+16  0.2861155749E+01  0.6259624406E-17  0.3967708300E+00
  0.3530110648E+00  0.1000000000E+01  0.2570463033E+00  0.1493083936E+01  0.1890709852E-16  0.5346505563E+00  0.4020742086E+16  0.2603434503E+01  0.1396812613E-16  0.1836272809E+00
  0.2570463033E+00  0.1000000000E+01  0.2570463033E+00  0.1273507810E+01  0.2400957294E-17  0.5604161814E+00  0.4020742086E+16  0.2265467244E+01  0.2584615283E-17  0.6948008265E-01
  0.1429536967E+00  0.1000000000E+01  0.2570463033E+00  0.1414425125E+01  0.1591035384E-17  0.1514066347E+00  0.4020742086E+16  0.2208689607E+01  0.1687541924E-17 -0.3466930466E+00
  0.4698893521E-01  0.1000000000E+01  0.2570463033E+00  0.1254033178E+01 -0.8443022185E-18 -0.1915886283E+00  0.4020742086E+16  0.1405029455E+01 -0.5652570429E-17 -0.5650934303E+00
  0.0000000000E+00  0.1000000000E+01  0.2570463033E+00 -0.1268025529E-01  0.2156064901E-19 -0.2162747520E+00  0.4020742086E+16 -0.1861751327E-01  0.5931579921E-19 -0.1898486654E+00
  0.4000000000E+00  0.1000000000E+01  0.3530110648E+00  0.1010432589E+01  0.1184121421E-17  0.6813254017E+00  0.4020742086E+16  0.3984891717E+01 -0.7117553023E-18  0.3379865753E-01
  0.3530110648E+00  0.1000000000E+01  0.3530110648E+00  0.1564579149E+01  0.3139031863E-17  0.6012737348E+00  0.4020742086E+16  0.3062760220E+01  0.2410778495E-17 -0.3052084435E+00
  0.2570463033E+00  0.1000000000E+01  0.3530110648E+00  0.1655620408E+01 -0.1481371313E-16  0.4360004222E+00  0.4020742086E+16  0.2563502848E+01 -0.2888211050E-17 -0.3915947194E+00
  0.1429536967E+00  0.1000000000E+01  0.3530110648E+00  0.2066245110E+01 -0.1566297004E-17 -0.1007721792E+00  0.4020742086E+16  0.2715240915E+01  0.3697903290E-17 -0.7074644974E+00
  0.4698893521E-01  0.1000000000E+01  0.3530110648E+00  0.1722740942E+01  0.2881667165E-17 -0.4133829877E+00  0.4020742086E+16  0.1647355596E+01  0.5668187036E-17 -0.7299849062E+00
  0.0000000000E+00  0.1000000000E+01  0.3530110648E+00 -0.1924954228E-01  0.3198490971E-19 -0.2532921921E+00  0.4020742086E+16 -0.2903181737E-01  0.6511241635E-20 -0.1642940651E+00
  0.4000000000E+00  0.1000000000E+01  0.4000000000E+00  0.1767812688E+01 -0.3961695988E-18  0.1150575234E+01  0.4020742086E+16  0.4776475676E+01  0.9033369354E-18 -0.2826251231E+00
  0.3530110648E+00  0.1000000000E+01  0.4000000000E+00  0.2086942348E+01  0.1038390845E-18  0.9035988599E+00  0.4020742086E+16  0.3494248584E+01  0.8656368260E-18 -0.5831317543E-01
  0.2570463033E+00  0.1000000000E+01  0.4000000000E+00  0.1992956422E+01  0.3617378277E-17  0.2913684637E+00  0.4020742086E+16  0.2815405335E+01  0.1692148237E-17 -0.3135184734E+00
  0.1429536967E+00  0.1000000000E+01  0.4000000000E+00  0.2443919771E+01  0.3323613384E-17 -0.2338704234E+00  0.4020742086E+16  0.2973534392E+01 -0.6819060725E-18 -0.6524196776E+00
  0.4698893521E-01  0.1000000000E+01  0.4000000000E+00  0.1953057917E+01  0.1294150570E-17 -0.5353886417E+00  0.4020742086E+16  0.1731266938E+01  0.1363565302E-17 -0.6549654652E+00
  0.0000000000E+00  0.1000000000E+01  0.4000000000E+00 -0.5807663104E-02 -0.3026222698E-20 -0.2289858907E+00  0.4020742086E+16 -0.1699112804E-01 -0.2104572093E-19 -0.9682801619E-01
ZONE I=6, J=6, K=1, F=POINT
  0.8000000000E+00  0.1000000000E+01  0.0000000000E+00  0.4055518882E+00 -0.2226919622E-18 -0.5770421959E-02  0.4020742086E+16  0.6809516002E+00  0.1513846771E-18 -0.9256598868E-02
  0.7530110648E+00  0.1000000000E+01  0.0000000000E+00  0.3952626440E+00  0.8502197756E-17  0.1459217241E-01  0.4020742086E+16  0.6424548156E+00  0.1476979008E-16  0.7816829946E-02
  0.6570463033E+00  0.1000000000E+01  0.0000000000E+00  0.3811933390E+00  0.5110180049E-17  0.6495706938E-02  0.4020742086E+16  0.5733208712E+00  0.7409136979E-17 -0.5102123395E-02
  0.5429536967E+00  0.1000000000E+01  0.0000000000E+00  0.3296968294E+00  0.8699638083E-17  0.9494410016E-02  0.4020742086E+16  0.4807562189E+00  0.1247981175E-16 -0.3075477323E-02
  0.4469889352E+00  0.1000000000E+01  0.0000000000E+00  0.2776982405E+00  0.8593249217E-17  0.9241207492E-02  0.4020742086E+16  0.4016884048E+00  0.1239581487E-16  0.8414623287E-03
  0.4000000000E+00  0.1000000000E+01  0.0000000000E+00  0.2838264889E+00  0.2755573539E-19  0.2398011280E-01  0.4020742086E+16  0.3830551044E+00  0.1837174588E-18  0.2563857919E-01
  0.8000000000E+00  0.1000000000E+01  0.4698893521E-01  0.3794215670E+00 -0.2093636348E-16  0.1504943672E+01  0.4020742086E+16  0.1931019611E+01 -0.3948367226E-16  0.1662784614E+01
  0.7530110648E+00  0.1000000000E+01  0.4698893521E-01  0.6443119109E+00 -0.2179314185E-16  0.1468942927E+01  0.4020742086E+16  0.2067846620E+01 -0.1027144579E-15  0.1614909192E+01
  0.6570463033E+00  0.1000000000E+01  0.4698893521E-01  0.4877169379E+00  0.7009761770E-18  0.1448362833E+01  0.4020742086E+16  0.1700123489E+01  0.1560267395E-16  0.1720599927E+01
  0.5429536967E+00  0.1000000000E+01  0.4698893521E-01  0.4637023213E+00  0.7304020357E-17  0.1390264665E+01  0.4020742086E+16  0.1579326262E+01  0.2644183822E-16  0.1645643003E+01
  0.4469889352E+00  0.1000000000E+01  0.4698893521E-01  0.3260619935E+00  0.2502969808E-17  0.1330362788E+01  0.4020742086E+16  0.1363698804E+01 -0.3694375834E-17  0.1210804941E+01
  0.4000000000E+00  0.1000000000E+01  0.4698893521E-01  0.5091157811E+00  0.1608807946E-17  0.1192915908E+01  0.4020742086E+16  0.1425699364E+01 -0.3711515900E-17  0.8441232877E+00
  0.8000000000E+00  0.1000000000E+01  0.1429536967E+00  0.1322912376E+01 -0.6097378414E-16  0.9458079648E+00  0.4020742086E+16  0.3073882325E+01 -0.1328001630E-16  0.1707473734E+01
  0.7530110648E+00  0.1000000000E+01  0.1429536967E+00  0.1776551640E+01 -0.4326042597E-16  0.1184171682E+01  0.4020742086E+16  0.3332808295E+01 -0.5820903491E-16  0.1815920117E+01
  0.6570463033E+00  0.1000000000E+01  0.1429536967E+00  0.1379783614E+01 -0.4310440271E-17  0.1248017707E+01  0.4020742086E+16  0.2739212590E+01 -0.5914726072E-16  0.1532010410E+01
  0.5429536967E+00  0.1000000000E+01  0.1429536967E+00  0.1168071613E+01  0.1401048103E-16  0.1361049630E+01  0.4020742086E+16  0.2522153097E+01  0.5267956641E-16  0.1272474853E+01
  0.4469889352E+00  0.1000000000E+01  0.1429536967E+00  0.8155366547E+00  0.9909697859E-19  0.1379131685E+01  0.4020742086E+16  0.2142603373E+01 -0.7939609871E-17  0.1142753908E+01
  0.4000000000E+00  0.1000000000E+01  0.1429536967E+00  0.1004783250E+01  0.1554928490E-16  0.1395401078E+01  0.4020742086E+16  0.2208858835E+01  0.3201269801E-16  0.1106603296E+01
  0.8000000000E+00  0.1000000000E+01  0.2570463033E+00  0.2563037952E+01 -0.1584839271E-16 -0.2764953613E-01  0.4020742086E+16  0.4576575376E+01 -0.1110126241E-16  0.9467160123E+00
  0.7530110648E+00  0.1000000000E+01  0.2570463033E+00  0.2645723258E+01  0.7072130503E-17  0.1585013320E+00  0.4020742086E+16  0.4476528972E+01  0.1082191899E-16  0.1063157321E+01
  0.6570463033E+00  0.1000000000E+01  0.2570463033E+00  0.2444471488E+01 -0.1072337123E-16 -0.1080189450E+00  0.4020742086E+16  0.3887786138E+01 -0.5073005964E-16  0.1107860245E+01
  0.5429536967E+00  0.1000000000E+01  0.2570463033E+00  0.1564350434E+01  0.1062471915E-16 -0.1386017318E+00  0.4020742086E+16  0.3223212866E+01  0.3779796041E-16  0.1375329149E+01
  0.4469889352E+00  0.1000000000E+01  0.2570463033E+00  0.8615571264E+00  0.1528753319E-16  0.1319209873E+00  0.4020742086E+16  0.2828235385E+01  0.2091377301E-16  0.7106615892E+00
  0.4000000000E+00  0.1000000000E+01  0.2570463033E+00  0.1190195905E+01  0.5029699397E-17  0.4340346699E+00  0.4020742086E+16  0.2898922792E+01  0.6576768658E-17  0.3978474946E+00
  0.8000000000E+00  0.1000000000E+01  0.3530110648E+00  0.3019492435E+01 -0.1452791760E-17  0.6462875804E+00  0.4020742086E+16  0.5262972301E+01 -0.3433165628E-17  0.7943270666E+00
  0.7530110648E+00  0.1000000000E+01  0.3530110648E+00  0.3438746476E+01  0.1031917687E-16  0.8828870250E+00  0.4020742086E+16  0.5182740796E+01  0.1070265187E-15  0.9035631772E+00
  0.6570463033E+00  0.1000000000E+01  0.3530110648E+00  0.3155308670E+01 -0.6321526170E-16  0.1146923201E+01  0.4020742086E+16  0.3622319072E+01 -0.8635254724E-16  0.1690985865E+01
  0.5429536967E+00  0.1000000000E+01  0.3530110648E+00  0.2103374315E+01 -0.3252033278E-16  0.1512650521E+01  0.4020742086E+16  0.4090314672E+01 -0.1648626078E-15  0.2815667322E+01
  0.4469889352E+00  0.1000000000E+01  0.3530110648E+00  0.1098528530E+01 -0.1523578915E-16  0.9346536102E+00  0.4020742086E+16  0.4978409492E+01 -0.5903959403E-17  0.1044123569E+01
  0.4000000000E+00  0.1000000000E+01  0.3530110648E+00  0.1055971629E+01  0.1560986870E-17  0.6810707060E+00  0.4020742086E+16  0.4019229872E+01 -0.8412199040E-18  0.3551814980E-01
  0.8000000000E+00  0.1000000000E+01  0.4000000000E+00  0.2893225096E+01 -0.1286059065E-16  0.9000054952E+00  0.4020742086E+16  0.5350547080E+01 -0.1304055025E-16  0.2524036842E+00
  0.7530110648E+00  0.1000000000E+01  0.4000000000E+00  0.3253570578E+01 -0.2042548549E-16  0.1424622701E+01  0.4020742086E+16  0.5257536728E+01 -0.3448615027E-17  0.3118726329E+00
  0.6570463033E+00  0.1000000000E+01  0.4000000000E+00  0.2814942367E+01  0.2088452631E-16  0.3091670247E+01  0.4020742086E+16  0.3106105902E+01  0.1949918779E-16  0.9807463510E+00
  0.5429536967E+00  0.1000000000E+01  0.4000000000E+00  0.2439899968E+01  0.9567438533E-16  0.4503200101E+01  0.4020742086E+16  0.4443014284E+01  0.1181147199E-15  0.2256955143E+01
  0.4469889352E+00  0.1000000000E+01  0.4000000000E+00  0.2305561969E+01 -0.1268391806E-17  0.2235615160E+01  0.4020742086E+16  0.6597518233E+01  0.1059098170E-15  0.3705566661E+00
  0.4000000000E+00  0.1000000000E+01  0.4000000000E+00  0.1777632258E+01  0.5259638709E-19  0.1153451210E+01  0.4020742086E+16  0.4773146180E+01  0.8580503684E-18 -0.2764562451E+00
ZONE I=6, J=6, K=1, F=POINT
  0.1200000000E+01  0.1000000000E+01  0.0000000000E+00  0.2192218990E+00 -0.4604056466E-19  0.4659843312E-01  0.4020742086E+16  0.7415625041E+00  0.2822705904E-18  0.3838995672E-01
  0.1153011065E+01  0.1000000000E+01  0.0000000000E+00  0.2702702631E+00  0.1086995149E-16 -0.2944383818E-02  0.4020742086E+16  0.7709598220E+00  0.3528088331E-16 -0.9886064976E-02
  0.1057046303E+01  0.1000000000E+01  0.0000000000E+00  0.3195787582E+00  0.8277871584E-17  0.1487091232E-01  0.4020742086E+16  0.7634343391E+00  0.1968062356E-16  0.7419542591E-02
  0.9429536967E+00  0.1000000000E+01  0.0000000000E+00  0.3542119955E+00 -0.2789875267E-18 -0.2065558929E-02  0.4020742086E+16  0.7229658281E+00  0.3459397469E-18 -0.1000978554E-01
  0.8469889352E+00  0.1000000000E+01  0.0000000000E+00  0.3821994391E+00 -0.1286741357E-18  0.1313104438E-01  0.4020742086E+16  0.6872464334E+00 -0.5888838152E-19  0.6201267384E-02
  0.8000000000E+00  0.1000000000E+01  0.0000000000E+00  0.3570960236E+00 -0.2290010858E-18 -0.5378545461E-02  0.4020742086E+16  0.6304586533E+00  0.1894219381E-18 -0.9008331522E-02
  0.1200000000E+01  0.1000000000E+01  0.4698893521E-01  0.1716305120E+01 -0.1220802519E-16 -0.2140056430E+00  0.4020742086E+16  0.3765173460E+01 -0.1033556530E-15  0.1106140994E+01
  0.1153011065E+01  0.1000000000E+01  0.4698893521E-01  0.1015139188E+01 -0.4429101383E-17  0.1197600150E+00  0.4020742086E+16  0.3066373538E+01 -0.7002258947E-16  0.1295084093E+01
  0.1057046303E+01  0.1000000000E+01  0.4698893521E-01  0.1037752625E+01 -0.1877590825E-16  0.5367943656E+00  0.4020742086E+16  0.2992006458E+01  0.5865221379E-17  0.1404102471E+01
  0.9429536967E+00  0.1000000000E+01  0.4698893521E-01  0.5942905468E+00 -0.4251987821E-17  0.9580057733E+00  0.4020742086E+16  0.2403422222E+01 -0.5359924625E-16  0.1517804801E+01
  0.8469889352E+00  0.1000000000E+01  0.4698893521E-01  0.5954328992E+00 -0.1624850593E-16  0.1301617167E+01  0.4020742086E+16  0.2259863593E+01 -0.9032770679E-16  0.1571350769E+01
  0.8000000000E+00  0.1000000000E+01  0.4698893521E-01  0.3161209826E+00 -0.2002910618E-16  0.1506622216E+01  0.4020742086E+16  0.1864481422E+01 -0.3902667056E-16  0.1664526749E+01
  0.1200000000E+01  0.1000000000E+01  0.1429536967E+00  0.4856767669E+01 -0.3566570523E-16 -0.8693317208E+00  0.4020742086E+16  0.7177936997E+01 -0.9657205350E-16  0.1148857188E+01
  0.1153011065E+01  0.1000000000E+01  0.1429536967E+00  0.3234189169E+01 -0.1398121777E-15 -0.9088006635E+00  0.4020742086E+16  0.5653043587E+01 -0.1665836682E-16  0.9708725872E+00
  0.1057046303E+01  0.1000000000E+01  0.1429536967E+00  0.2980364433E+01 -0.3843052366E-16 -0.2524589545E+00  0.4020742086E+16  0.5246953852E+01 -0.4256294777E-16  0.1308616664E+01
  0.9429536967E+00  0.1000000000E+01  0.1429536967E+00  0.1918114614E+01 -0.3397593452E-16  0.1439922467E+00  0.4020742086E+16  0.4048867519E+01 -0.3441727204E-16  0.1370700424E+01
  0.8469889352E+00  0.1000000000E+01  0.1429536967E+00  0.1746843076E+01 -0.4382026110E-16  0.8131176611E+00  0.4020742086E+16  0.3770774860E+01 -0.9393905653E-16  0.1720777985E+01
  0.8000000000E+00  0.1000000000E+01  0.1429536967E+00  0.1234235194E+01 -0.6391147393E-16  0.9437316733E+00  0.4020742086E+16  0.2997994554E+01 -0.1491652094E-16  0.1705722565E+01
  0.1200000000E+01  0.1000000000E+01  0.2570463033E+00  0.5319525324E+01 -0.3535005084E-16 -0.1879363235E+01  0.4020742086E+16  0.7814223141E+01 -0.3475802919E-16 -0.7037122437E-01
  0.1153011065E+01  0.1000000000E+01  0.2570463033E+00  0.4564267806E+01  0.1251005209E-15 -0.2014073694E+01  0.4020742086E+16  0.7264284491E+01 -0.1373012103E-15 -0.2789035145E+00
  0.1057046303E+01  0.1000000000E+01  0.2570463033E+00  0.3721615982E+01 -0.4240578962E-16 -0.1310102898E+01  0.4020742086E+16  0.6364092640E+01 -0.3838715187E-16  0.1084033786E+00
  0.9429536967E+00  0.1000000000E+01  0.2570463033E+00  0.3026563129E+01  0.2765998357E-16 -0.9074514545E+00  0.4020742086E+16  0.5415198516E+01 -0.1003315881E-15  0.1168125028E+00
  0.8469889352E+00  0.1000000000E+01  0.2570463033E+00  0.2727411735E+01 -0.2259433762E-16 -0.1250070867E+00  0.4020742086E+16  0.4919665793E+01  0.6144381464E-16  0.8659362879E+00
  0.8000000000E+00  0.1000000000E+01  0.2570463033E+00  0.2519955389E+01 -0.1473759077E-16 -0.2996652061E-01  0.4020742086E+16  0.4537988098E+01 -0.1128341535E-16  0.9444043896E+00
  0.1200000000E+01  0.1000000000E+01  0.3530110648E+00  0.5728631317E+01 -0.6236392033E-17 -0.2770908831E+01  0.4020742086E+16  0.8400514680E+01 -0.7099633128E-17 -0.9825785221E+00
  0.1153011065E+01  0.1000000000E+01  0.3530110648E+00  0.4662495395E+01  0.6020538480E-17 -0.2557962756E+01  0.4020742086E+16  0.7614636006E+01 -0.3210179462E-16 -0.9053321319E+00
  0.1057046303E+01  0.1000000000E+01  0.3530110648E+00  0.3795511706E+01 -0.4595396655E-16 -0.1762056420E+01  0.4020742086E+16  0.6945825256E+01 -0.6693763525E-16 -0.5669156383E+00
  0.9429536967E+00  0.1000000000E+01  0.3530110648E+00  0.3191504328E+01  0.8011328069E-17 -0.9040996719E+00  0.4020742086E+16  0.5850920317E+01 -0.8488891245E-16 -0.3615946993E+00
  0.8469889352E+00  0.1000000000E+01  0.3530110648E+00  0.3136774825E+01 -0.5506284833E-16  0.2391489842E+00  0.4020742086E+16  0.5311883868E+01  0.4284370204E-17  0.5006836734E+00
  0.8000000000E+00  0.1000000000E+01  0.3530110648E+00  0.2963170188E+01 -0.3836521062E-18  0.6457687881E+00  0.4020742086E+16  0.5204257220E+01 -0.2696438353E-17  0.7940496069E+00
  0.1200000000E+01  0.1000000000E+01  0.4000000000E+00  0.5450202729E+01 -0.8384111625E-17 -0.3228305042E+01  0.4020742086E+16  0.8275999561E+01 -0.9553197463E-17 -0.1506201992E+01
  0.1153011065E+01  0.1000000000E+01  0.4000000000E+00  0.4654886109E+01 -0.5939376341E-16 -0.3239152225E+01  0.4020742086E+16  0.7773291417E+01 -0.1975783400E-16 -0.1689228509E+01
  0.1057046303E+01  0.1000000000E+01  0.4000000000E+00  0.3590296810E+01 -0.6269372694E-16 -0.2511509825E+01  0.4020742086E+16  0.6994755086E+01 -0.3072962017E-16 -0.1324617268E+01
  0.9429536967E+00  0.1000000000E+01  0.4000000000E+00  0.3019308976E+01  0.1176798747E-16 -0.1461942011E+01  0.4020742086E+16  0.5955226225E+01 -0.4571177538E-16 -0.9291078067E+00
  0.8469889352E+00  0.1000000000E+01  0.4000000000E+00  0.2814534088E+01 -0.3939701133E-16  0.1107808611E+00  0.4020742086E+16  0.5217094119E+01 -0.1819970098E-16 -0.1704823152E+00
  0.8000000000E+00  0.1000000000E+01  0.4000000000E+00  0.2888736133E+01 -0.1230741254E-16  0.8965300476E+00  0.4020742086E+16  0.5351837121E+01 -0.1282945964E-16  0.2508781056E+00
ZONE I=6, J=6, K=1, F=POINT
  0.1600000000E+01  0.1000000000E+01  0.0000000000E+00  0.1308173063E+00 -0.1547002959E-17 -0.5577047828E-01  0.4020742086E+16  0.9058977543E+00 -0.1002313855E-17 -0.9170166040E-01
  0.1553011065E+01  0.1000000000E+01  0.0000000000E+00  0.3119489845E-01 -0.1395945590E-17  0.4938532905E-01  0.4020742086E+16  0.7827550649E+00 -0.3828728436E-16  0.4201737597E-01
  0.1457046303E+01  0.1000000000E+01  0.0000000000E+00  0.8293413624E-01 -0.2659410333E-17  0.4324322221E-02  0.4020742086E+16  0.7640830480E+00 -0.1817225117E-16 -0.3877596567E-02
  0.1342953697E+01  0.1000000000E+01  0.0000000000E+00  0.1732349358E+00  0.9476968331E-17  0.3749436364E-01  0.4020742086E+16  0.7772195299E+00  0.4311162706E-16  0.3037171464E-01
  0.1246988935E+01  0.1000000000E+01  0.0000000000E+00  0.2192336064E+00  0.2447030257E-17 -0.1158375691E-02  0.4020742086E+16  0.7665360387E+00  0.3749207096E-17 -0.8695939381E-02
  0.1200000000E+01  0.1000000000E+01  0.0000000000E+00  0.3143040147E+00 -0.4932257867E-19  0.4664355685E-01  0.4020742086E+16  0.8355508987E+00  0.4521455502E-18  0.3833640235E-01
  0.1600000000E+01  0.1000000000E+01  0.4698893521E-01  0.1589151711E+01 -0.5987824728E-16  0.1179162880E+01  0.4020742086E+16  0.3844024263E+01 -0.1114189290E-15  0.2275514580E+01
  0.1553011065E+01  0.1000000000E+01  0.4698893521E-01  0.2380763360E+01 -0.8218264979E-16  0.4747361636E+00  0.4020742086E+16  0.4435514667E+01 -0.2116785915E-16  0.1663412562E+01
  0.1457046303E+01  0.1000000000E+01  0.4698893521E-01  0.1594733197E+01  0.2165989042E-16  0.1010919222E+00  0.4020742086E+16  0.3684250415E+01 -0.3939999644E-16  0.1640138986E+01
  0.1342953697E+01  0.1000000000E+01  0.4698893521E-01  0.1825770717E+01  0.1637040855E-16  0.2499531924E-01  0.4020742086E+16  0.3930869126E+01  0.3570276335E-16  0.1424549247E+01
  0.1246988935E+01  0.1000000000E+01  0.4698893521E-01  0.1478363133E+01 -0.4030262926E-16 -0.4588817138E-01  0.4020742086E+16  0.3466163386E+01  0.4235467556E-16  0.1301152233E+01
  0.1200000000E+01  0.1000000000E+01  0.4698893521E-01  0.1818196265E+01 -0.1621889064E-16 -0.2192617124E+00  0.4020742086E+16  0.3865059570E+01 -0.1080268543E-15  0.1100972441E+01
  0.1600000000E+01  0.1000000000E+01  0.1429536967E+00  0.4937674731E+01 -0.3672018453E-15 -0.2402695196E+01  0.4020742086E+16  0.7411650776E+01 -0.2288153515E-15  0.2949739790E+00
  0.1553011065E+01  0.1000000000E+01  0.1429536967E+00  0.7514919052E+01 -0.1280923421E-15 -0.1417572138E+01  0.4020742086E+16  0.9363874060E+01 -0.2064111566E-15  0.1208667264E+01
  0.1457046303E+01  0.1000000000E+01  0.1429536967E+00  0.5636016666E+01 -0.4134597506E-16 -0.1312116536E+01  0.4020742086E+16  0.7757005285E+01  0.9261600793E-16  0.1137332163E+01
  0.1342953697E+01  0.1000000000E+01  0.1429536967E+00  0.5724513027E+01  0.4496040815E-16 -0.5911219362E+00  0.4020742086E+16  0.8029854810E+01  0.1305073745E-15  0.1610539601E+01
  0.1246988935E+01  0.1000000000E+01  0.1429536967E+00  0.4696083822E+01  0.6598428048E-16 -0.1108078162E+01  0.4020742086E+16  0.6702111691E+01 -0.9556221692E-16  0.9821902154E+00
  0.1200000000E+01  0.1000000000E+01  0.1429536967E+00  0.5020278616E+01 -0.4096004595E-16 -0.8648906671E+00  0.4020742086E+16  0.7336537493E+01 -0.1001748338E-15  0.1153425799E+01
  0.1600000000E+01  0.1000000000E+01  0.2570463033E+00  0.9808191673E+01  0.6547107878E-16 -0.4755294992E+01  0.4020742086E+16  0.1243810737E+02  0.7332600814E-16 -0.1891067697E+01
  0.1553011065E+01  0.1000000000E+01  0.2570463033E+00  0.9472113613E+01  0.7304170006E-16 -0.3348242437E+01  0.4020742086E+16  0.1184672103E+02  0.1159645451E-15 -0.6724199707E+00
  0.1457046303E+01  0.1000000000E+01  0.2570463033E+00  0.8610016583E+01  0.8089499760E-16 -0.2720513236E+01  0.4020742086E+16  0.1111350978E+02  0.2234950932E-15 -0.5273846167E+00
  0.1342953697E+01  0.1000000000E+01  0.2570463033E+00  0.7324968100E+01  0.3645315005E-16 -0.1591613648E+01  0.4020742086E+16  0.9743975811E+01  0.1730788503E-15  0.4599424033E+00
  0.1246988935E+01  0.1000000000E+01  0.2570463033E+00  0.6185636190E+01 -0.4759415041E-16 -0.2227457987E+01  0.4020742086E+16  0.8403078688E+01  0.8791132327E-16 -0.3211246122E+00
  0.1200000000E+01  0.1000000000E+01  0.2570463033E+00  0.5355529769E+01 -0.3366181099E-16 -0.1870256424E+01  0.4020742086E+16  0.7852879730E+01 -0.3537414595E-16 -0.6372858940E-01
  0.1600000000E+01  0.1000000000E+01  0.3530110648E+00  0.8272219387E+01  0.1711729531E-15 -0.3984656600E+01  0.4020742086E+16  0.1118128678E+02  0.1623575447E-15 -0.1640840333E+01
  0.1553011065E+01  0.1000000000E+01  0.3530110648E+00  0.9143835031E+01  0.1534375844E-15 -0.3802084313E+01  0.4020742086E+16  0.1189300530E+02  0.1727399117E-15 -0.1601073237E+01
  0.1457046303E+01  0.1000000000E+01  0.3530110648E+00  0.8657575963E+01  0.6741721949E-16 -0.3429210902E+01  0.4020742086E+16  0.1129737294E+02  0.1969578988E-15 -0.1265832653E+01
  0.1342953697E+01  0.1000000000E+01  0.3530110648E+00  0.7776838538E+01  0.5851864820E-16 -0.2763149455E+01  0.4020742086E+16  0.1027078675E+02  0.1173879504E-15 -0.6180265011E+00
  0.1246988935E+01  0.1000000000E+01  0.3530110648E+00  0.6332493095E+01  0.6257047240E-16 -0.2900098886E+01  0.4020742086E+16  0.8805307301E+01 -0.3082365325E-16 -0.9671488837E+00
  0.1200000000E+01  0.1000000000E+01  0.3530110648E+00  0.5812135954E+01 -0.6355869887E-17 -0.2771475759E+01  0.4020742086E+16  0.8480058178E+01 -0.6925871477E-17 -0.9828152784E+00
  0.1600000000E+01  0.1000000000E+01  0.4000000000E+00  0.8435033231E+01  0.1627044440E-15 -0.5109197826E+01  0.4020742086E+16  0.1155940648E+02  0.1615224892E-15 -0.2705250940E+01
  0.1553011065E+01  0.1000000000E+01  0.4000000000E+00  0.8566655007E+01  0.2151536400E-15 -0.4222242177E+01  0.4020742086E+16  0.1138912178E+02  0.1617671179E-15 -0.1958780738E+01
  0.1457046303E+01  0.1000000000E+01  0.4000000000E+00  0.8678561815E+01  0.1431630598E-15 -0.4266927468E+01  0.4020742086E+16  0.1128713160E+02  0.1385732800E-15 -0.2033744101E+01
  0.1342953697E+01  0.1000000000E+01  0.4000000000E+00  0.7553325817E+01  0.1325384806E-16 -0.3418914120E+01  0.4020742086E+16  0.1011260404E+02  0.1754113848E-15 -0.1208293333E+01
  0.1246988935E+01  0.1000000000E+01  0.4000000000E+00  0.6421795961E+01  0.1502238591E-16 -0.3605182989E+01  0.4020742086E+16  0.9059839736E+01 -0.2517905656E-16 -0.1685560883E+01
  0.1200000000E+01  0.1000000000E+01  0.4000000000E+00  0.5424595108E+01 -0.8833498469E-17 -0.3216091908E+01  0.4020742086E+16  0.8258689092E+01 -0.9139106600E-17 -0.1496093989E+01
ZONE I=6, J=6, K=1, F=POINT
  0.2000000000E+01  0.1000000000E+01  0.0000000000E+00  0.2346300320E+01  0.5083939614E-19  0.2118584283E+02  0.4020742086E+16  0.2484599557E+01  0.2676266460E-18  0.2221078259E+02
  0.1953011065E+01  0.1000000000E+01  0.0000000000E+00  0.1040092041E+01 -0.3396555944E-16 -0.2235325975E+00  0.4020742086E+16  0.1966698290E+01 -0.5220136765E-16 -0.1058440429E+00
  0.1857046303E+01  0.1000000000E+01  0.0000000000E+00 -0.5358858234E+00 -0.3091926831E-16  0.1878274467E+00  0.4020742086E+16  0.5348055315E+00  0.2885967507E-16  0.1505869948E+00
  0.1742953697E+01  0.1000000000E+01  0.0000000000E+00  0.2521148921E-01 -0.4764700866E-18 -0.3386251569E-01  0.4020742086E+16  0.9307400506E+00  0.2295185624E-17 -0.2732792807E-01
  0.1646988935E+01  0.1000000000E+01  0.0000000000E+00 -0.1806293687E+00 -0.2316605450E-18  0.7241133852E-01  0.4020742086E+16  0.7740361341E+00 -0.2654224013E-17  0.5292358608E-01
  0.1600000000E+01  0.1000000000E+01  0.0000000000E+00  0.9603693004E-01 -0.1548733996E-17 -0.6759189489E-01  0.4020742086E+16  0.8462700459E+00 -0.1164710672E-17 -0.1028544000E+00
  0.2000000000E+01  0.1000000000E+01  0.4698893521E-01 -0.1104977778E+00  0.4258132852E-18  0.4822768092E+02  0.4020742086E+16 -0.1357676879E-01  0.6395443950E-18  0.4935382457E+02
  0.1953011065E+01  0.1000000000E+01  0.4698893521E-01  0.8752414785E+01  0.1126627140E-15 -0.5776566985E+00  0.4020742086E+16  0.1099860946E+02  0.1317940596E-15  0.1736963979E+01
  0.1857046303E+01  0.1000000000E+01  0.4698893521E-01  0.9101566104E+01  0.1136094183E-15 -0.3457884076E+01  0.4020742086E+16  0.1175066303E+02  0.3027410525E-15 -0.1170045512E+01
  0.1742953697E+01  0.1000000000E+01  0.4698893521E-01  0.3525144927E+01 -0.5269532582E-16 -0.1237033238E+01  0.4020742086E+16  0.6051897654E+01 -0.6089711531E-16  0.9507001699E+00
  0.1646988935E+01  0.1000000000E+01  0.4698893521E-01  0.2211780510E+01 -0.1563308121E-16 -0.3980732715E-02  0.4020742086E+16  0.5162770879E+01 -0.1727435183E-15  0.1422835744E+01
  0.1600000000E+01  0.1000000000E+01  0.4698893521E-01  0.1444330916E+01 -0.5792697315E-16  0.1161532975E+01  0.4020742086E+16  0.3685940245E+01 -0.1081421939E-15  0.2254249435E+01
  0.2000000000E+01  0.1000000000E+01  0.1429536967E+00 -0.2450306629E+00  0.6148400450E-17  0.5027628437E+02  0.4020742086E+16 -0.2568837038E+00  0.4153311823E-17  0.5135033982E+02
  0.1953011065E+01  0.1000000000E+01  0.1429536967E+00  0.5029497009E+00 -0.7236884693E-15  0.1394835609E+02  0.4020742086E+16  0.2800233997E+01 -0.5150049073E-15  0.1680989070E+02
  0.1857046303E+01  0.1000000000E+01  0.1429536967E+00  0.9580591761E+01 -0.8825271362E-16 -0.5994547523E+01  0.4020742086E+16  0.1210026959E+02 -0.2394543315E-15 -0.3172560441E+01
  0.1742953697E+01  0.1000000000E+01  0.1429536967E+00  0.6742661871E+01 -0.3704814626E-15 -0.5565893446E+01  0.4020742086E+16  0.9520578688E+01 -0.9732495299E-16 -0.2590128774E+01
  0.1646988935E+01  0.1000000000E+01  0.1429536967E+00  0.6296751193E+01 -0.2039303579E-15 -0.2869941211E+01  0.4020742086E+16  0.9969054896E+01 -0.1979104600E-15 -0.4366723590E-01
  0.1600000000E+01  0.1000000000E+01  0.1429536967E+00  0.4585691981E+01 -0.3874674564E-15 -0.2402701701E+01  0.4020742086E+16  0.7082728380E+01 -0.2477607719E-15  0.2906821854E+00
  0.2000000000E+01  0.1000000000E+01  0.2570463033E+00  0.2631510613E-01  0.6736460569E-18  0.4978910480E+02  0.4020742086E+16  0.3375785780E-01  0.1358013763E-17  0.5078057854E+02