TITLE = "Generated from ../MESH/Convergence_0000000000.hmesh and Convergence_0000003800.hsol"
VARIABLES = "x","y","z","veloT_x","veloT_y","veloT_z","slr_4","velo_x","velo_y","velo_z"
ZONE I=6, J=6, K=1, F=POINT
  0.4000000000E+00  0.1000000000E+01  0.0000000000E+00 -0.1111251925E-01  0.2859087916E-19  0.7499268774E-02  0.6129451924E+15 -0.1194247632E-01  0.2803878587E-19  0.7280936931E-02
  0.3530110648E+00  0.1000000000E+01  0.0000000000E+00 -0.5793828803E-03  0.7814390235E-20 -0.2454496934E-03  0.6129451924E+15 -0.8457646869E-03  0.1069986435E-19 -0.2596495495E-03
  0.2570463033E+00  0.1000000000E+01  0.0000000000E+00  0.7619892770E-03  0.8104453165E-21  0.2437481778E-02  0.6129451924E+15  0.6705796591E-03  0.1695699995E-20  0.2425664617E-02
  0.1429536967E+00  0.1000000000E+01  0.0000000000E+00 -0.7524022539E-04  0.1811470412E-21 -0.1125194607E-02  0.6129451924E+15 -0.9641044493E-04  0.3926086269E-21 -0.1114327105E-02
  0.4698893521E-01  0.1000000000E+01  0.0000000000E+00  0.2402629767E-02 -0.2334316043E-20  0.1867983339E-02  0.6129451924E+15  0.2608629216E-02 -0.2110381019E-20  0.1795099518E-02
  0.0000000000E+00  0.1000000000E+01  0.0000000000E+00 -0.7452452052E-02  0.1157027999E-22  0.1983403182E-02  0.6129451924E+15 -0.7416882866E-02  0.1447905707E-22  0.1908822458E-02
  0.4000000000E+00  0.1000000000E+01  0.4698893521E-01  0.2676394604E+00  0.2881476156E-17 -0.4403734106E-01  0.6129451924E+15  0.2654505439E+00  0.2894387374E-17 -0.5219247914E-01
  0.3530110648E+00  0.1000000000E+01  0.4698893521E-01  0.1292515205E+00  0.2580641486E-17 -0.7118809773E-02  0.6129451924E+15  0.1286719035E+00  0.2596137353E-17 -0.1420469822E-01
  0.2570463033E+00  0.1000000000E+01  0.4698893521E-01  0.1017801055E+00  0.9909169223E-18 -0.2086994694E-01  0.6129451924E+15  0.1018201373E+00  0.9846180788E-18 -0.2526531622E-01
  0.1429536967E+00  0.1000000000E+01  0.4698893521E-01  0.5891225314E-02  0.2394652998E-18 -0.1304491634E-01  0.6129451924E+15  0.6877109499E-02  0.2412240614E-18 -0.1471194795E-01
  0.4698893521E-01  0.1000000000E+01  0.4698893521E-01 -0.1571179964E-02  0.4688477656E-19 -0.9273240992E-02  0.6129451924E+15  0.1534695791E-03  0.4900889533E-19 -0.1054600510E-01
  0.0000000000E+00  0.1000000000E+01  0.4698893521E-01 -0.1803765606E-01  0.9143107886E-21  0.1806755824E-02  0.6129451924E+15 -0.1795275156E-01  0.9531987002E-21  0.1662359346E-02
  0.4000000000E+00  0.1000000000E+01  0.1429536967E+00  0.5926745293E+00  0.9421658730E-17 -0.1127400166E+00  0.6129451924E+15  0.5851476423E+00  0.9321762334E-17 -0.1441898757E+00
  0.3530110648E+00  0.1000000000E+01  0.1429536967E+00  0.3385290751E+00  0.5706479792E-17 -0.1539129766E+00  0.6129451924E+15  0.3325743677E+00  0.5892376281E-17 -0.1813344821E+00
  0.2570463033E+00  0.1000000000E+01  0.1429536967E+00  0.2398193580E+00  0.2203084043E-17 -0.1010473159E+00  0.6129451924E+15  0.2334439935E+00  0.2190526147E-17 -0.1192310665E+00
  0.1429536967E+00  0.1000000000E+01  0.1429536967E+00  0.3727644901E-01  0.7688198592E-18 -0.1166075329E+00  0.6129451924E+15  0.3396078202E-01  0.7645775434E-18 -0.1239975152E+00
  0.4698893521E-01  0.1000000000E+01  0.1429536967E+00 -0.7082864632E-02  0.1805183616E-18 -0.1141947079E-01  0.6129451924E+15 -0.6329940615E-02  0.1920079294E-18 -0.1384013005E-01
  0.0000000000E+00  0.1000000000E+01  0.1429536967E+00 -0.2135977662E-01 -0.1548511637E-21 -0.1992777999E-02  0.6129451924E+15 -0.2138854964E-01  0.2895223308E-21 -0.2176238381E-02
  0.4000000000E+00  0.1000000000E+01  0.2570463033E+00  0.6816382365E+00  0.3183430939E-17 -0.3626832140E+00  0.6129451924E+15  0.6622875244E+00  0.3159941235E-17 -0.4091445999E+00
  0.3530110648E+00  0.1000000000E+01  0.2570463033E+00  0.5080320250E+00  0.2299156186E-17 -0.4094681983E+00  0.6129451924E+15  0.4892427557E+00  0.1717060738E-17 -0.4503122083E+00
  0.2570463033E+00  0.1000000000E+01  0.2570463033E+00  0.3169331199E+00  0.1691582169E-17 -0.2894154021E+00  0.6129451924E+15  0.2957282332E+00  0.1698561909E-17 -0.3169298834E+00
  0.1429536967E+00  0.1000000000E+01  0.2570463033E+00  0.9226037867E-01  0.1322201446E-17 -0.2807939771E+00  0.6129451924E+15  0.7694606801E-01  0.1327101959E-17 -0.2920263252E+00
  0.4698893521E-01  0.1000000000E+01  0.2570463033E+00  0.8059993596E-02  0.9649205983E-18 -0.5188420992E-01  0.6129451924E+15  0.4620524209E-02  0.9280253330E-18 -0.5476561028E-01
  0.0000000000E+00  0.1000000000E+01  0.2570463033E+00 -0.1412830080E-01 -0.3538283322E-20 -0.1638438582E-02  0.6129451924E+15 -0.1413664232E-01 -0.4449622270E-20 -0.2021497513E-02
  0.4000000000E+00  0.1000000000E+01  0.3530110648E+00  0.7132616695E+00  0.3529762878E-17 -0.6217733226E+00  0.6129451924E+15  0.6829995964E+00  0.3555192649E-17 -0.6690960819E+00
  0.3530110648E+00  0.1000000000E+01  0.3530110648E+00  0.5280812164E+00  0.3136569008E-17 -0.6342659477E+00  0.6129451924E+15  0.4975986386E+00  0.3127433415E-17 -0.6761465788E+00
  0.2570463033E+00  0.1000000000E+01  0.3530110648E+00  0.3284188527E+00  0.1543338382E-17 -0.4911897383E+00  0.6129451924E+15  0.2924403111E+00  0.1955771043E-17 -0.5199078106E+00
  0.1429536967E+00  0.1000000000E+01  0.3530110648E+00  0.9813766653E-01  0.1796944941E-17 -0.4178632511E+00  0.6129451924E+15  0.7074030793E-01  0.1891157070E-17 -0.4290280070E+00
  0.4698893521E-01  0.1000000000E+01  0.3530110648E+00  0.1187766727E-01  0.5498306346E-18 -0.1138580333E+00  0.6129451924E+15  0.4476283093E-02  0.5793627569E-18 -0.1172021984E+00
  0.0000000000E+00  0.1000000000E+01  0.3530110648E+00 -0.1432651148E-01  0.5664427807E-20 -0.2061846556E-02  0.6129451924E+15 -0.1436448532E-01  0.4559696351E-20 -0.2406712814E-02
  0.4000000000E+00  0.1000000000E+01  0.4000000000E+00  0.6918742371E+00  0.5683393769E-17 -0.7484922226E+00  0.6129451924E+15  0.6558954795E+00  0.5681536193E-17 -0.7984764664E+00
  0.3530110648E+00  0.1000000000E+01  0.4000000000E+00  0.5564662550E+00  0.4860949005E-17 -0.7518799889E+00  0.6129451924E+15  0.5205133663E+00  0.4983661681E-17 -0.7960945988E+00
  0.2570463033E+00  0.1000000000E+01  0.4000000000E+00  0.3305944262E+00  0.1903521355E-17 -0.5911413531E+00  0.6129451924E+15  0.2870374493E+00  0.1754469801E-17 -0.6210910070E+00
  0.1429536967E+00  0.1000000000E+01  0.4000000000E+00  0.1095218983E+00  0.2001580987E-17 -0.4888395197E+00  0.6129451924E+15  0.7597894353E-01  0.1906709348E-17 -0.5005822382E+00
  0.4698893521E-01  0.1000000000E+01  0.4000000000E+00  0.8841368098E-02  0.5564005238E-18 -0.1424915486E+00  0.6129451924E+15 -0.8300875499E-04  0.5690220356E-18 -0.1459143151E+00
  0.0000000000E+00  0.1000000000E+01  0.4000000000E+00 -0.6814311372E-02  0.7681249530E-20 -0.3869523690E-02  0.6129451924E+15 -0.7368899393E-02  0.7771225867E-20 -0.3999801939E-02
ZONE I=6, J=6, K=1, F=POINT
  0.8000000000E+00  0.1000000000E+01  0.0000000000E+00  0.1758100523E-01 -0.8477409882E-19 -0.1180686186E-01  0.6129451924E+15  0.1684905028E-01 -0.8673375468E-19 -0.1197451848E-01
  0.7530110648E+00  0.1000000000E+01  0.0000000000E+00  0.2254061617E-02  0.8288417421E-19  0.6044421232E-02  0.6129451924E+15  0.1090381043E-02  0.6206487221E-19  0.5964789458E-02
  0.6570463033E+00  0.1000000000E+01  0.0000000000E+00 -0.5721112076E-04  0.2786053317E-19  0.3055121437E-03  0.6129451924E+15 -0.1433894404E-02  0.1099289856E-19  0.3314900316E-03
  0.5429536967E+00  0.1000000000E+01  0.0000000000E+00  0.1401523436E-02  0.4163710920E-19  0.7127134233E-02  0.6129451924E+15  0.1803644696E-04  0.7668235598E-20  0.7131031878E-02
  0.4469889352E+00  0.1000000000E+01  0.0000000000E+00 -0.9530892463E-03 -0.8726197464E-20  0.6984640432E-03  0.6129451924E+15 -0.2260628673E-02 -0.4479225754E-19  0.6944372023E-03
  0.4000000000E+00  0.1000000000E+01  0.0000000000E+00  0.1572389270E-01  0.3219474027E-19  0.7201139066E-02  0.6129451924E+15  0.1482505214E-01  0.3168770265E-19  0.6964743976E-02
  0.8000000000E+00  0.1000000000E+01  0.4698893521E-01  0.3192290966E+00 -0.2427955670E-16 -0.4505884105E-02  0.6129451924E+15  0.3170758660E+00 -0.2424888086E-16 -0.7958868615E-02
  0.7530110648E+00  0.1000000000E+01  0.4698893521E-01  0.5135790759E+00 -0.2366350651E-16 -0.6170842380E-01  0.6129451924E+15  0.5127070443E+00 -0.2360453381E-16 -0.6775226833E-01
  0.6570463033E+00  0.1000000000E+01  0.4698893521E-01  0.2981343447E+00 -0.4898772442E-17 -0.2514473840E-01  0.6129451924E+15  0.2960532375E+00 -0.4942852972E-17 -0.3755259157E-01
  0.5429536967E+00  0.1000000000E+01  0.4698893521E-01  0.3317361591E+00  0.4205264094E-17 -0.1151773148E-01  0.6129451924E+15  0.3280602451E+00  0.4135546650E-17 -0.2361200848E-01
  0.4469889352E+00  0.1000000000E+01  0.4698893521E-01  0.2050136161E+00  0.3814574599E-17 -0.7080231522E-03  0.6129451924E+15  0.2023600220E+00  0.3839697470E-17 -0.1035689366E-01
  0.4000000000E+00  0.1000000000E+01  0.4698893521E-01  0.3098837164E+00  0.2639583942E-17 -0.4479044258E-01  0.6129451924E+15  0.3075865316E+00  0.2652718901E-17 -0.5293818891E-01
  0.8000000000E+00  0.1000000000E+01  0.1429536967E+00  0.1012762718E+01 -0.5531555116E-16 -0.3563752452E+00  0.6129451924E+15  0.1015248013E+01 -0.5522435930E-16 -0.3916106914E+00
  0.7530110648E+00  0.1000000000E+01  0.1429536967E+00  0.1306209217E+01 -0.3521490383E-16 -0.2098733544E+00  0.6129451924E+15  0.1312565516E+01 -0.3500878192E-16 -0.2481594648E+00
  0.6570463033E+00  0.1000000000E+01  0.1429536967E+00  0.8747074373E+00 -0.4543132088E-17 -0.2003499062E+00  0.6129451924E+15  0.8757613057E+00 -0.4610868379E-17 -0.2417018577E+00
  0.5429536967E+00  0.1000000000E+01  0.1429536967E+00  0.8153523864E+00  0.9026052371E-17 -0.5270611406E-01  0.6129451924E+15  0.8085973068E+00  0.8808314309E-17 -0.9363285959E-01
  0.4469889352E+00  0.1000000000E+01  0.1429536967E+00  0.5198627996E+00  0.9201125284E-17 -0.1342091880E+00  0.6129451924E+15  0.5120350559E+00  0.9425424275E-17 -0.1694587771E+00
  0.4000000000E+00  0.1000000000E+01  0.1429536967E+00  0.6443197347E+00  0.1013496352E-16 -0.1121891764E+00  0.6129451924E+15  0.6360220277E+00  0.1002484595E-16 -0.1436448562E+00
  0.8000000000E+00  0.1000000000E+01  0.2570463033E+00  0.1965211287E+01 -0.1562090175E-16 -0.8728121042E+00  0.6129451924E+15  0.1979040070E+01 -0.1560369092E-16 -0.9271265916E+00
  0.7530110648E+00  0.1000000000E+01  0.2570463033E+00  0.1845631675E+01 -0.1132887521E-16 -0.6193184487E+00  0.6129451924E+15  0.1854761333E+01 -0.1217297511E-16 -0.6757744202E+00
  0.6570463033E+00  0.1000000000E+01  0.2570463033E+00  0.1393511670E+01 -0.4922155848E-17 -0.5568824755E+00  0.6129451924E+15  0.1395443822E+01 -0.4954777893E-17 -0.6140955452E+00
  0.5429536967E+00  0.1000000000E+01  0.2570463033E+00  0.1071088661E+01  0.1784824287E-17 -0.2992996914E+00  0.6129451924E+15  0.1061363083E+01  0.1639213337E-17 -0.3566197003E+00
  0.4469889352E+00  0.1000000000E+01  0.2570463033E+00  0.7541928086E+00  0.3090829009E-17 -0.4069498533E+00  0.6129451924E+15  0.7356322863E+00  0.2446001636E-17 -0.4583842381E+00
  0.4000000000E+00  0.1000000000E+01  0.2570463033E+00  0.7119628878E+00  0.3209347917E-17 -0.3620286817E+00  0.6129451924E+15  0.6932418484E+00  0.3183835024E-17 -0.4085351014E+00
  0.8000000000E+00  0.1000000000E+01  0.3530110648E+00  0.2140071006E+01 -0.1182688811E-17 -0.1340549440E+01  0.6129451924E+15  0.2161419225E+01 -0.1191387875E-17 -0.1382720549E+01
  0.7530110648E+00  0.1000000000E+01  0.3530110648E+00  0.2050112402E+01  0.3465217434E-17 -0.1119134966E+01  0.6129451924E+15  0.2064582992E+01  0.4234993284E-17 -0.1165319045E+01
  0.6570463033E+00  0.1000000000E+01  0.3530110648E+00  0.1559452039E+01 -0.2079200950E-17 -0.9346393409E+00  0.6129451924E+15  0.1564458348E+01 -0.1464118624E-17 -0.9888934490E+00
  0.5429536967E+00  0.1000000000E+01  0.3530110648E+00  0.1170440670E+01 -0.2127502305E-17 -0.6279949818E+00  0.6129451924E+15  0.1158740867E+01 -0.9229847075E-18 -0.6844436106E+00
  0.4469889352E+00  0.1000000000E+01  0.3530110648E+00  0.7798207814E+00  0.3045403705E-17 -0.6654615016E+00  0.6129451924E+15  0.7527581987E+00  0.3432930609E-17 -0.7171988536E+00
  0.4000000000E+00  0.1000000000E+01  0.3530110648E+00  0.7456429480E+00  0.3505488021E-17 -0.6215728891E+00  0.6129451924E+15  0.7157301082E+00  0.3531631024E-17 -0.6688869725E+00
  0.8000000000E+00  0.1000000000E+01  0.4000000000E+00  0.2213385390E+01 -0.6954352502E-17 -0.1621456209E+01  0.6129451924E+15  0.2238664943E+01 -0.6958261850E-17 -0.1659710728E+01
  0.7530110648E+00  0.1000000000E+01  0.4000000000E+00  0.1996121961E+01 -0.3507790848E-17 -0.1337707876E+01  0.6129451924E+15  0.2015811175E+01 -0.3233265426E-17 -0.1381482864E+01
  0.6570463033E+00  0.1000000000E+01  0.4000000000E+00  0.1557323933E+01 -0.1191845576E-17 -0.1139524216E+01  0.6129451924E+15  0.1565858023E+01 -0.1468030615E-17 -0.1193188267E+01
  0.5429536967E+00  0.1000000000E+01  0.4000000000E+00  0.1147926636E+01  0.5293009169E-17 -0.8364355900E+00  0.6129451924E+15  0.1135398304E+01  0.4517353349E-17 -0.8947873813E+00
  0.4469889352E+00  0.1000000000E+01  0.4000000000E+00  0.8277490367E+00  0.6314012110E-17 -0.8179480899E+00  0.6129451924E+15  0.7972651862E+00  0.5812810776E-17 -0.8718514386E+00
  0.4000000000E+00  0.1000000000E+01  0.4000000000E+00  0.7035142132E+00  0.5701095457E-17 -0.7477750550E+00  0.6129451924E+15  0.6685786585E+00  0.5701376604E-17 -0.7977610031E+00
ZONE I=6, J=6, K=1, F=POINT
  0.1200000000E+01  0.1000000000E+01  0.0000000000E+00 -0.3206907258E-01  0.5741687602E-19  0.3682711579E-01  0.6129451924E+15 -0.3345739815E-01  0.5804097334E-19  0.3688631903E-01
  0.1153011065E+01  0.1000000000E+01  0.0000000000E+00 -0.5642571150E-02 -0.2514697263E-18 -0.9711333855E-02  0.6129451924E+15 -0.6374486816E-02 -0.2815361432E-18 -0.9605857451E-02
  0.1057046303E+01  0.1000000000E+01  0.0000000000E+00  0.1571093641E-02  0.5342402438E-20  0.6028940014E-02  0.6129451924E+15  0.1130803234E-02 -0.7036986516E-20  0.6010129873E-02
  0.9429536967E+00  0.1000000000E+01  0.0000000000E+00 -0.2526670626E-02  0.3582044229E-20 -0.8171431053E-02  0.6129451924E+15 -0.3108263264E-02  0.5571574782E-20 -0.8208613138E-02
  0.8469889352E+00  0.1000000000E+01  0.0000000000E+00  0.3265829195E-02 -0.2146458871E-19  0.5467093801E-02  0.6129451924E+15  0.2399378028E-02 -0.2004133497E-19  0.5364796355E-02
  0.8000000000E+00  0.1000000000E+01  0.0000000000E+00 -0.2729410936E-01 -0.9438277354E-19 -0.1125870882E-01  0.6129451924E+15 -0.2859629771E-01 -0.9659620560E-19 -0.1143303710E-01
  0.1200000000E+01  0.1000000000E+01  0.4698893521E-01  0.2157184646E+01 -0.4227648493E-16 -0.2212603442E+00  0.6129451924E+15  0.2155131874E+01 -0.4215954469E-16 -0.2106443146E+00
  0.1153011065E+01  0.1000000000E+01  0.4698893521E-01  0.1469983705E+01 -0.2661794197E-16 -0.7440300757E-01  0.6129451924E+15  0.1469206275E+01 -0.2659901122E-16 -0.6647521652E-01
  0.1057046303E+01  0.1000000000E+01  0.4698893521E-01  0.1338112289E+01 -0.1299342396E-16 -0.1061806127E+00  0.6129451924E+15  0.1337651510E+01 -0.1299789412E-16 -0.1057211996E+00
  0.9429536967E+00  0.1000000000E+01  0.4698893521E-01  0.7410143059E+00 -0.1551398626E-16 -0.9273840668E-01  0.6129451924E+15  0.7387538916E+00 -0.1544936783E-16 -0.9735385059E-01
  0.8469889352E+00  0.1000000000E+01  0.4698893521E-01  0.6461716540E+00 -0.2848183958E-16 -0.9135378251E-01  0.6129451924E+15  0.6429412793E+00 -0.2833398980E-16 -0.9474952351E-01
  0.8000000000E+00  0.1000000000E+01  0.4698893521E-01  0.2592897287E+00 -0.2359232689E-16 -0.2464512207E-02  0.6129451924E+15  0.2567607077E+00 -0.2356270512E-16 -0.5953199817E-02
  0.1200000000E+01  0.1000000000E+01  0.1429536967E+00  0.4946194905E+01 -0.5924315594E-16 -0.6360632443E+00  0.6129451924E+15  0.4952874338E+01 -0.5929668101E-16 -0.6311447231E+00
  0.1153011065E+01  0.1000000000E+01  0.1429536967E+00  0.3496818614E+01 -0.6920879431E-16 -0.8397547604E+00  0.6129451924E+15  0.3504219189E+01 -0.6886007857E-16 -0.8376020892E+00
  0.1057046303E+01  0.1000000000E+01  0.1429536967E+00  0.3129379948E+01 -0.4079234852E-16 -0.6192179973E+00  0.6129451924E+15  0.3138375598E+01 -0.4082151201E-16 -0.6260462079E+00
  0.9429536967E+00  0.1000000000E+01  0.1429536967E+00  0.1901269963E+01 -0.3628830343E-16 -0.7237875974E+00  0.6129451924E+15  0.1905147298E+01 -0.3629675873E-16 -0.7432653513E+00
  0.8469889352E+00  0.1000000000E+01  0.1429536967E+00  0.1637057934E+01 -0.5192886153E-16 -0.3780731989E+00  0.6129451924E+15  0.1637595149E+01 -0.5179353700E-16 -0.4087007176E+00
  0.8000000000E+00  0.1000000000E+01  0.1429536967E+00  0.9292859244E+00 -0.5752663147E-16 -0.3579860205E+00  0.6129451924E+15  0.9333249255E+00 -0.5745177418E-16 -0.3931948258E+00
  0.1200000000E+01  0.1000000000E+01  0.2570463033E+00  0.5053225882E+01 -0.8925310926E-17 -0.1705583183E+01  0.6129451924E+15  0.5061614992E+01 -0.8873714393E-17 -0.1710802753E+01
  0.1153011065E+01  0.1000000000E+01  0.2570463033E+00  0.4527634088E+01 -0.4227546493E-16 -0.1945267442E+01  0.6129451924E+15  0.4544292716E+01 -0.4409044182E-16 -0.1955259746E+01
  0.1057046303E+01  0.1000000000E+01  0.2570463033E+00  0.3729342184E+01 -0.3595459250E-16 -0.1537710814E+01  0.6129451924E+15  0.3750476786E+01 -0.3591956613E-16 -0.1557747313E+01
  0.9429536967E+00  0.1000000000E+01  0.2570463033E+00  0.2815686797E+01 -0.3404471390E-16 -0.1578290456E+01  0.6129451924E+15  0.2835775006E+01 -0.3508444462E-16 -0.1611157019E+01
  0.8469889352E+00  0.1000000000E+01  0.2570463033E+00  0.2309203901E+01 -0.1756361496E-16 -0.9494072023E+00  0.6129451924E+15  0.2327605157E+01 -0.1759490600E-16 -0.9974018056E+00
  0.8000000000E+00  0.1000000000E+01  0.2570463033E+00  0.1927108882E+01 -0.1577146275E-16 -0.8752994549E+00  0.6129451924E+15  0.1942030212E+01 -0.1575881999E-16 -0.9292723388E+00
  0.1200000000E+01  0.1000000000E+01  0.3530110648E+00  0.5202169449E+01  0.2892708397E-16 -0.2806134256E+01  0.6129451924E+15  0.5218300124E+01  0.2895494689E-16 -0.2817538586E+01
  0.1153011065E+01  0.1000000000E+01  0.3530110648E+00  0.4494479321E+01  0.8596840239E-17 -0.2717715905E+01  0.6129451924E+15  0.4522139430E+01  0.8254197358E-17 -0.2733107108E+01
  0.1057046303E+01  0.1000000000E+01  0.3530110648E+00  0.3817380739E+01 -0.1253439614E-16 -0.2328709024E+01  0.6129451924E+15  0.3848251492E+01 -0.1221871904E-16 -0.2353293752E+01
  0.9429536967E+00  0.1000000000E+01  0.3530110648E+00  0.2946746029E+01 -0.1872242201E-16 -0.2118876948E+01  0.6129451924E+15  0.2976468648E+01 -0.1940149791E-16 -0.2152216591E+01
  0.8469889352E+00  0.1000000000E+01  0.3530110648E+00  0.2540236138E+01 -0.4821356690E-17 -0.1524244869E+01  0.6129451924E+15  0.2569552999E+01 -0.3664599212E-17 -0.1563369921E+01
  0.8000000000E+00  0.1000000000E+01  0.3530110648E+00  0.2092990174E+01 -0.1121836425E-17 -0.1340814009E+01  0.6129451924E+15  0.2115998979E+01 -0.1135039876E-17 -0.1383008519E+01
  0.1200000000E+01  0.1000000000E+01  0.4000000000E+00  0.4856769481E+01  0.3460139089E-16 -0.3095650579E+01  0.6129451924E+15  0.4874056198E+01  0.3461198872E-16 -0.3115866370E+01
  0.1153011065E+01  0.1000000000E+01  0.4000000000E+00  0.4517273292E+01  0.2490544452E-16 -0.3192975954E+01  0.6129451924E+15  0.4546895433E+01  0.2550859460E-16 -0.3213201146E+01
  0.1057046303E+01  0.1000000000E+01  0.4000000000E+00  0.3707244289E+01 -0.1015503544E-17 -0.2680144850E+01  0.6129451924E+15  0.3741750684E+01 -0.8016264491E-18 -0.2701117643E+01
  0.9429536967E+00  0.1000000000E+01  0.4000000000E+00  0.2969103142E+01 -0.1765843676E-16 -0.2444664223E+01  0.6129451924E+15  0.3001618115E+01 -0.1841734739E-16 -0.2474111261E+01
  0.8469889352E+00  0.1000000000E+01  0.4000000000E+00  0.2463134317E+01 -0.1188189875E-16 -0.1771223768E+01  0.6129451924E+15  0.2494936051E+01 -0.1158652644E-16 -0.1806494762E+01
  0.8000000000E+00  0.1000000000E+01  0.4000000000E+00  0.2208975644E+01 -0.6934204084E-17 -0.1624674970E+01  0.6129451924E+15  0.2235303486E+01 -0.6941439574E-17 -0.1662610220E+01
ZONE I=6, J=6, K=1, F=POINT
  0.1600000000E+01  0.1000000000E+01  0.0000000000E+00  0.1299115442E+00 -0.9077054304E-18 -0.7176694660E-01  0.6129451924E+15  0.1282227154E+00 -0.1028902477E-17 -0.7197474515E-01
  0.1553011065E+01  0.1000000000E+01  0.0000000000E+00  0.1010130737E-01 -0.1301197223E-17  0.4525287773E-01  0.6129451924E+15  0.8650482234E-02 -0.1258987913E-17  0.4496842354E-01
  0.1457046303E+01  0.1000000000E+01  0.0000000000E+00 -0.7407710819E-02 -0.8230113113E-19 -0.3249727438E-02  0.6129451924E+15 -0.9316195709E-02 -0.5762454899E-19 -0.3245514167E-02
  0.1342953697E+01  0.1000000000E+01  0.0000000000E+00  0.5204339219E-02  0.3966834172E-18  0.2980582783E-01  0.6129451924E+15  0.3119125112E-02  0.2822853500E-18  0.2973455870E-01
  0.1246988935E+01  0.1000000000E+01  0.0000000000E+00 -0.7853950108E-02  0.1207931270E-18 -0.8291255422E-02  0.6129451924E+15 -0.9655432588E-02  0.1144926191E-18 -0.8289140810E-02
  0.1200000000E+01  0.1000000000E+01  0.0000000000E+00  0.5725584598E-01  0.6147923067E-19  0.3687151966E-01  0.6129451924E+15  0.5600689414E-01  0.6189260745E-19  0.3691199659E-01
  0.1600000000E+01  0.1000000000E+01  0.4698893521E-01  0.2994814724E+01 -0.8889524003E-16  0.2108664062E+00  0.6129451924E+15  0.2989016962E+01 -0.8876372227E-16  0.2151478011E+00
  0.1553011065E+01  0.1000000000E+01  0.4698893521E-01  0.3470143430E+01 -0.4424560344E-16 -0.2925095706E+00  0.6129451924E+15  0.3466168427E+01 -0.4436987182E-16 -0.2884419311E+00
  0.1457046303E+01  0.1000000000E+01  0.4698893521E-01  0.2478702687E+01 -0.4932696624E-17 -0.1035320352E+00  0.6129451924E+15  0.2474320842E+01 -0.4783774363E-17 -0.9816747380E-01
  0.1342953697E+01  0.1000000000E+01  0.4698893521E-01  0.2462167171E+01  0.2871089487E-16 -0.7692773529E-01  0.6129451924E+15  0.2456220264E+01  0.2866243992E-16 -0.6920131090E-01
  0.1246988935E+01  0.1000000000E+01  0.4698893521E-01  0.1889792117E+01 -0.6785981851E-17 -0.4589970766E-01  0.6129451924E+15  0.1884338295E+01 -0.7022820824E-17 -0.3515557605E-01
  0.1200000000E+01  0.1000000000E+01  0.4698893521E-01  0.2255413372E+01 -0.4648999603E-16 -0.2269532193E+00  0.6129451924E+15  0.2251023204E+01 -0.4632709778E-16 -0.2159553257E+00
  0.1600000000E+01  0.1000000000E+01  0.1429536967E+00  0.6265338281E+01 -0.2668854260E-15 -0.1875097145E+01  0.6129451924E+15  0.6244532928E+01 -0.2671394780E-15 -0.1870014996E+01
  0.1553011065E+01  0.1000000000E+01  0.1429536967E+00  0.7925862153E+01 -0.1440318929E-15 -0.1032386913E+01  0.6129451924E+15  0.7921491401E+01 -0.1440801109E-15 -0.1027222033E+01
  0.1457046303E+01  0.1000000000E+01  0.1429536967E+00  0.5817811979E+01  0.3228808459E-16 -0.9901423403E+00  0.6129451924E+15  0.5812466089E+01  0.3176435725E-16 -0.9848207691E+00
  0.1342953697E+01  0.1000000000E+01  0.1429536967E+00  0.5750352571E+01  0.1011953759E-15 -0.2408418353E+00  0.6129451924E+15  0.5741842507E+01  0.1009042724E-15 -0.2326210905E+00
  0.1246988935E+01  0.1000000000E+01  0.1429536967E+00  0.4391513928E+01  0.2566210937E-16 -0.7663713373E+00  0.6129451924E+15  0.4387902530E+01  0.2606095557E-16 -0.7585948782E+00
  0.1200000000E+01  0.1000000000E+01  0.1429536967E+00  0.5112855791E+01 -0.6342589642E-16 -0.6307649927E+00  0.6129451924E+15  0.5108576247E+01 -0.6334757890E-16 -0.6264717248E+00
  0.1600000000E+01  0.1000000000E+01  0.2570463033E+00  0.1101688849E+02  0.9741249481E-16 -0.3818006300E+01  0.6129451924E+15  0.1101754214E+02  0.9733788681E-16 -0.3834466994E+01
  0.1553011065E+01  0.1000000000E+01  0.2570463033E+00  0.9889785019E+01  0.1215237333E-15 -0.2710737226E+01  0.6129451924E+15  0.9887967399E+01  0.1212506067E-15 -0.2721488471E+01
  0.1457046303E+01  0.1000000000E+01  0.2570463033E+00  0.8446922437E+01  0.1853342158E-15 -0.2516247132E+01  0.6129451924E+15  0.8440113259E+01  0.1848340005E-15 -0.2525340853E+01
  0.1342953697E+01  0.1000000000E+01  0.2570463033E+00  0.6773700182E+01  0.1337374575E-15 -0.1274240005E+01  0.6129451924E+15  0.6764896566E+01  0.1332174879E-15 -0.1281793156E+01
  0.1246988935E+01  0.1000000000E+01  0.2570463033E+00  0.5522519547E+01  0.4182378242E-16 -0.1948621806E+01  0.6129451924E+15  0.5522388136E+01  0.4174904024E-16 -0.1952835826E+01
  0.1200000000E+01  0.1000000000E+01  0.2570463033E+00  0.5093560630E+01 -0.9212746314E-17 -0.1696393383E+01  0.6129451924E+15  0.5101819387E+01 -0.9168069680E-17 -0.1704148469E+01
  0.1600000000E+01  0.1000000000E+01  0.3530110648E+00  0.9345262437E+01  0.1933521709E-15 -0.4452387037E+01  0.6129451924E+15  0.9337791715E+01  0.1933002554E-15 -0.4470941883E+01
  0.1553011065E+01  0.1000000000E+01  0.3530110648E+00  0.9469923310E+01  0.2011568756E-15 -0.4337490951E+01  0.6129451924E+15  0.9463684831E+01  0.2010880438E-15 -0.4356306451E+01
  0.1457046303E+01  0.1000000000E+01  0.3530110648E+00  0.8155323967E+01  0.1966372585E-15 -0.3797543430E+01  0.6129451924E+15  0.8148421573E+01  0.1963564081E-15 -0.3814431151E+01
  0.1342953697E+01  0.1000000000E+01  0.3530110648E+00  0.6813456226E+01  0.1495179852E-15 -0.2823741689E+01  0.6129451924E+15  0.6801637871E+01  0.1492929438E-15 -0.2840057191E+01
  0.1246988935E+01  0.1000000000E+01  0.3530110648E+00  0.5393859883E+01  0.6131035973E-16 -0.2890360930E+01  0.6129451924E+15  0.5389963586E+01  0.6164486152E-16 -0.2901718602E+01
  0.1200000000E+01  0.1000000000E+01  0.3530110648E+00  0.5279392263E+01  0.2904150364E-16 -0.2806645077E+01  0.6129451924E+15  0.5291856567E+01  0.2902908114E-16 -0.2817700255E+01
  0.1600000000E+01  0.1000000000E+01  0.4000000000E+00  0.9456650633E+01  0.1933605394E-15 -0.5261834893E+01  0.6129451924E+15  0.9453437545E+01  0.1932789417E-15 -0.5273767127E+01
  0.1553011065E+01  0.1000000000E+01  0.4000000000E+00  0.8723150061E+01  0.2120231928E-15 -0.4448606896E+01  0.6129451924E+15  0.8718330058E+01  0.2122099728E-15 -0.4459478577E+01
  0.1457046303E+01  0.1000000000E+01  0.4000000000E+00  0.7974662971E+01  0.1878971622E-15 -0.4400013141E+01  0.6129451924E+15  0.7966596901E+01  0.1878937796E-15 -0.4410468426E+01
  0.1342953697E+01  0.1000000000E+01  0.4000000000E+00  0.6481241784E+01  0.1575816078E-15 -0.3256517726E+01  0.6129451924E+15  0.6470601069E+01  0.1567760696E-15 -0.3268935222E+01
  0.1246988935E+01  0.1000000000E+01  0.4000000000E+00  0.5432130434E+01  0.6201183320E-16 -0.3452744311E+01  0.6129451924E+15  0.5427443816E+01  0.6227306351E-16 -0.3469606385E+01
  0.1200000000E+01  0.1000000000E+01  0.4000000000E+00  0.4830429788E+01  0.3486971425E-16 -0.3083973729E+01  0.6129451924E+15  0.4848566250E+01  0.3485882426E-16 -0.3106665550E+01
ZONE I=6, J=6, K=1, F=POINT
  0.2000000000E+01  0.1000000000E+01  0.0000000000E+00  0.2402245984E+01  0.7373040595E-19  0.2123405539E+02  0.6129451923E+15  0.2430096345E+01  0.9421133044E-19  0.2215509994E+02
  0.1953011065E+01  0.1000000000E+01  0.0000000000E+00  0.1291264674E+01 -0.3734950321E-16 -0.1373730801E+00  0.6129451923E+15  0.1294820587E+01 -0.3607717928E-16 -0.1506307404E+00
  0.1857046303E+01  0.1000000000E+01  0.0000000000E+00 -0.3072996371E+00 -0.1884626245E-16  0.1518880850E+00  0.6129451924E+15 -0.3087694950E+00 -0.1938309753E-16  0.1504251892E+00
  0.1742953697E+01  0.1000000000E+01  0.0000000000E+00  0.1336149118E+00  0.2234220820E-18 -0.3736350579E-01  0.6129451924E+15  0.1331493273E+00  0.1100951463E-18 -0.3710595547E-01
  0.1646988935E+01  0.1000000000E+01  0.0000000000E+00 -0.1278928926E+00  0.3322853757E-18  0.6060561454E-01  0.6129451924E+15 -0.1291345218E+00  0.3025271181E-18  0.5954811468E-01
  0.1600000000E+01  0.1000000000E+01  0.0000000000E+00  0.8839740092E-01 -0.9863673316E-18 -0.8389240500E-01  0.6129451924E+15  0.8613522125E-01 -0.1109792453E-17 -0.8272700655E-01
  0.2000000000E+01  0.1000000000E+01  0.4698893521E-01 -0.1208093719E-01  0.7459616450E-18  0.4848224978E+02  0.6129451923E+15 -0.5482834228E-01  0.6860515426E-18  0.4865686204E+02
  0.1953011065E+01  0.1000000000E+01  0.4698893521E-01  0.1096179700E+02  0.1369694019E-15  0.1466651334E+01  0.6129451923E+15  0.1094854326E+02  0.1357430465E-15  0.1482650380E+01
  0.1857046303E+01  0.1000000000E+01  0.4698893521E-01  0.1166345654E+02  0.2910818009E-15 -0.1886874718E+01  0.6129451924E+15  0.1166276614E+02  0.2911722718E-15 -0.1885740179E+01
  0.1742953697E+01  0.1000000000E+01  0.4698893521E-01  0.5786655882E+01 -0.3815822925E-16 -0.6569522468E+00  0.6129451924E+15  0.5786261964E+01 -0.3779981577E-16 -0.6583167167E+00
  0.1646988935E+01  0.1000000000E+01  0.4698893521E-01  0.4467741817E+01 -0.1219433787E-15 -0.6456550075E+00  0.6129451924E+15  0.4461151670E+01 -0.1217959424E-15 -0.6411991141E+00
  0.1600000000E+01  0.1000000000E+01  0.4698893521E-01  0.2830988129E+01 -0.8604628946E-16  0.1966884872E+00  0.6129451924E+15  0.2834299233E+01 -0.8572935847E-16  0.1956575343E+00
  0.2000000000E+01  0.1000000000E+01  0.1429536967E+00 -0.2816383363E+00  0.2725366353E-17  0.5050260259E+02  0.6129451924E+15 -0.2572493750E+00  0.2751906671E-17  0.5043885411E+02
  0.1953011065E+01  0.1000000000E+01  0.1429536967E+00  0.2795070186E+01 -0.5136038721E-15  0.1641277056E+02  0.6129451924E+15  0.2779932354E+01 -0.5136116857E-15  0.1644765645E+02
  0.1857046303E+01  0.1000000000E+01  0.1429536967E+00  0.1274595197E+02 -0.2592847757E-15 -0.3595842819E+01  0.6129451924E+15  0.1274104381E+02 -0.2592288080E-15 -0.3590951108E+01
  0.1742953697E+01  0.1000000000E+01  0.1429536967E+00  0.9996214573E+01 -0.2006178255E-16 -0.4112385419E+01  0.6129451924E+15  0.9991330771E+01 -0.2106720714E-16 -0.4115006788E+01
  0.1646988935E+01  0.1000000000E+01  0.1429536967E+00  0.9283707145E+01 -0.1594212279E-15 -0.2128261785E+01  0.6129451924E+15  0.9273733382E+01 -0.1592367300E-15 -0.2123500661E+01
  0.1600000000E+01  0.1000000000E+01  0.1429536967E+00  0.5894639495E+01 -0.2833963974E-15 -0.1875011554E+01  0.6129451924E+15  0.5912743251E+01 -0.2840861331E-15 -0.1874612642E+01
  0.2000000000E+01  0.1000000000E+01  0.2570463033E+00  0.1898212013E-01  0.1108720060E-17  0.4987194942E+02  0.6129451924E+15  0.1810400824E-01  0.1069015134E-17  0.4987643613E+02