TITLE = "Generated from ../MESH/Convergence_0000000000.hmesh and Convergence_0000006000.hsol"
VARIABLES = "x","y","z","veloT_x","veloT_y","veloT_z","slr_4","velo_x","velo_y","velo_z"
ZONE I=6, J=6, K=1, F=POINT
  0.4000000000E+00  0.1000000000E+01  0.0000000000E+00 -0.1094345118E-01  0.2834921850E-19  0.7872612416E-02  0.6595497231E+15 -0.1207282082E-01  0.2827639678E-19  0.7581134657E-02
  0.3530110648E+00  0.1000000000E+01  0.0000000000E+00  0.9227526502E-05  0.7786301549E-20 -0.2332299323E-03  0.6595497231E+15 -0.1886902113E-02  0.8291704945E-20 -0.3546591572E-03
  0.2570463033E+00  0.1000000000E+01  0.0000000000E+00  0.1044930490E-02  0.7471503117E-21  0.2201876334E-02  0.6595497231E+15 -0.4262689167E-03  0.1109541038E-20  0.2214715422E-02
  0.1429536967E+00  0.1000000000E+01  0.0000000000E+00 -0.2999624087E-03  0.9702865053E-22 -0.1020377266E-02  0.6595497231E+15 -0.1555340099E-02  0.2346930561E-21 -0.1065474323E-02
  0.4698893521E-01  0.1000000000E+01  0.0000000000E+00  0.2327422315E-02 -0.2263790564E-20  0.1805560869E-02  0.6595497231E+15  0.1146798832E-02 -0.2360565262E-20  0.1972127144E-02
  0.0000000000E+00  0.1000000000E+01  0.0000000000E+00 -0.7460277909E-02  0.1167749267E-22  0.1925914768E-02  0.6595497231E+15 -0.7553079375E-02  0.1236963116E-22  0.2085748543E-02
  0.4000000000E+00  0.1000000000E+01  0.4698893521E-01  0.2741384107E+00  0.3225573650E-17 -0.2988359723E-01  0.6595497231E+15  0.2721469764E+00  0.3237198446E-17 -0.3382205446E-01
  0.3530110648E+00  0.1000000000E+01  0.4698893521E-01  0.1350841599E+00  0.2848754630E-17  0.5417166734E-02  0.6595497231E+15  0.1310551352E+00  0.2895708423E-17  0.2228133003E-02
  0.2570463033E+00  0.1000000000E+01  0.4698893521E-01  0.1039319646E+00  0.1243842531E-17 -0.1205618748E-01  0.6595497231E+15  0.1007744011E+00  0.1246358840E-17 -0.1314089311E-01
  0.1429536967E+00  0.1000000000E+01  0.4698893521E-01  0.7070110239E-02  0.3857263116E-18 -0.1079579834E-01  0.6595497231E+15  0.3895301178E-02  0.3772486968E-18 -0.1047402493E-01
  0.4698893521E-01  0.1000000000E+01  0.4698893521E-01  0.1032186129E-02  0.9467690544E-19 -0.1074236177E-01  0.6595497231E+15 -0.2065121565E-02  0.9140103393E-19 -0.8911455321E-02
  0.0000000000E+00  0.1000000000E+01  0.4698893521E-01 -0.1806608129E-01  0.8390541862E-21  0.1955803980E-02  0.6595497231E+15 -0.1818666105E-01  0.8585684626E-21  0.2937255546E-02
  0.4000000000E+00  0.1000000000E+01  0.1429536967E+00  0.6273393561E+00  0.1049985694E-16 -0.1099632679E+00  0.6595497231E+15  0.6240771043E+00  0.1045141928E-16 -0.1192817487E+00
  0.3530110648E+00  0.1000000000E+01  0.1429536967E+00  0.3671183661E+00  0.6491403007E-17 -0.1498290849E+00  0.6595497231E+15  0.3595404650E+00  0.6551290701E-17 -0.1576422980E+00
  0.2570463033E+00  0.1000000000E+01  0.1429536967E+00  0.2560373975E+00  0.2912192287E-17 -0.9702183657E-01  0.6595497231E+15  0.2500503132E+00  0.2908415354E-17 -0.1003825866E+00
  0.1429536967E+00  0.1000000000E+01  0.1429536967E+00  0.4540768784E-01  0.1176924594E-17 -0.1124292312E+00  0.6595497231E+15  0.4055732113E-01  0.1177055831E-17 -0.1124830258E+00
  0.4698893521E-01  0.1000000000E+01  0.1429536967E+00 -0.2264871445E-02  0.3217162618E-18 -0.1032596096E-01  0.6595497231E+15 -0.7135792971E-02  0.3120658274E-18 -0.8136572696E-02
  0.0000000000E+00  0.1000000000E+01  0.1429536967E+00 -0.2148549194E-01 -0.3729157891E-21 -0.1631501333E-02  0.6595497231E+15 -0.2140562107E-01 -0.2065551040E-21 -0.4641059124E-03
  0.4000000000E+00  0.1000000000E+01  0.2570463033E+00  0.7692837354E+00  0.4886551215E-17 -0.4102770368E+00  0.6595497231E+15  0.7628878981E+00  0.4881839320E-17 -0.4256601420E+00
  0.3530110648E+00  0.1000000000E+01  0.2570463033E+00  0.5825159105E+00  0.3924756794E-17 -0.4496936016E+00  0.6595497231E+15  0.5702116465E+00  0.3728740122E-17 -0.4633134186E+00
  0.2570463033E+00  0.1000000000E+01  0.2570463033E+00  0.3607462683E+00  0.2777028242E-17 -0.3127539862E+00  0.6595497231E+15  0.3498158325E+00  0.2779649427E-17 -0.3224786490E+00
  0.1429536967E+00  0.1000000000E+01  0.2570463033E+00  0.1111794115E+00  0.1937384770E-17 -0.2872920525E+00  0.6595497231E+15  0.1018078396E+00  0.1939133548E-17 -0.2906298120E+00
  0.4698893521E-01  0.1000000000E+01  0.2570463033E+00  0.1626474573E-01  0.1172675773E-17 -0.5155408686E-01  0.6595497231E+15  0.8322918136E-02  0.1196568477E-17 -0.4973659329E-01
  0.0000000000E+00  0.1000000000E+01  0.2570463033E+00 -0.1427396664E-01 -0.3606386792E-20 -0.1368273078E-02  0.6595497231E+15 -0.1427809896E-01 -0.3997938897E-20 -0.2705955029E-03
  0.4000000000E+00  0.1000000000E+01  0.3530110648E+00  0.8522340220E+00  0.5354735368E-17 -0.7235582576E+00  0.6595497231E+15  0.8420339053E+00  0.5364856110E-17 -0.7495891229E+00
  0.3530110648E+00  0.1000000000E+01  0.3530110648E+00  0.6417626967E+00  0.4732187941E-17 -0.7207341262E+00  0.6595497231E+15  0.6251348659E+00  0.4727098952E-17 -0.7438470307E+00
  0.2570463033E+00  0.1000000000E+01  0.3530110648E+00  0.3960900576E+00  0.2545581108E-17 -0.5444616119E+00  0.6595497231E+15  0.3793429085E+00  0.2770252980E-17 -0.5600279602E+00
  0.1429536967E+00  0.1000000000E+01  0.3530110648E+00  0.1258746122E+00  0.2374282559E-17 -0.4381519640E+00  0.6595497231E+15  0.1087942805E+00  0.2417010754E-17 -0.4432197375E+00
  0.4698893521E-01  0.1000000000E+01  0.3530110648E+00  0.1963741971E-01  0.7445055678E-18 -0.1168699809E+00  0.6595497231E+15  0.7151187051E-02  0.7205795137E-18 -0.1142175489E+00
  0.0000000000E+00  0.1000000000E+01  0.3530110648E+00 -0.1446895567E-01  0.5664934313E-20 -0.1187920137E-02  0.6595497231E+15 -0.1438297673E-01  0.5370892738E-20  0.4706157108E-04
  0.4000000000E+00  0.1000000000E+01  0.4000000000E+00  0.8528381336E+00  0.7356970315E-17 -0.8756873039E+00  0.6595497231E+15  0.8397040238E+00  0.7360432823E-17 -0.9116092368E+00
  0.3530110648E+00  0.1000000000E+01  0.4000000000E+00  0.6892523474E+00  0.6282498331E-17 -0.8596992196E+00  0.6595497231E+15  0.6679945981E+00  0.6345392786E-17 -0.8902326559E+00
  0.2570463033E+00  0.1000000000E+01  0.4000000000E+00  0.4097275250E+00  0.2849025161E-17 -0.6584389018E+00  0.6595497231E+15  0.3877328488E+00  0.2784853928E-17 -0.6747404535E+00
  0.1429536967E+00  0.1000000000E+01  0.4000000000E+00  0.1418574635E+00  0.2557046969E-17 -0.5132261513E+00  0.6595497231E+15  0.1204372315E+00  0.2508587498E-17 -0.5164244935E+00
  0.4698893521E-01  0.1000000000E+01  0.4000000000E+00  0.1814254807E-01  0.6961096282E-18 -0.1458471039E+00  0.6595497231E+15  0.3211787382E-02  0.6857731765E-18 -0.1427158149E+00
  0.0000000000E+00  0.1000000000E+01  0.4000000000E+00 -0.6977256283E-02  0.8023051744E-20 -0.2209259332E-02  0.6595497231E+15 -0.6766776004E-02  0.8248154947E-20 -0.1125503569E-02
ZONE I=6, J=6, K=1, F=POINT
  0.8000000000E+00  0.1000000000E+01  0.0000000000E+00  0.1871335842E-01 -0.8546496603E-19 -0.1114071404E-01  0.6595497231E+15  0.1789742043E-01 -0.8722655227E-19 -0.1130986601E-01
  0.7530110648E+00  0.1000000000E+01  0.0000000000E+00  0.3011952766E-02  0.1002445815E-18  0.6146625893E-02  0.6595497231E+15  0.2102902065E-02  0.8218778489E-19  0.6161710711E-02
  0.6570463033E+00  0.1000000000E+01  0.0000000000E+00  0.5669036741E-03  0.3469245210E-19  0.2489757017E-03  0.6595497231E+15 -0.5177724972E-03  0.2045408930E-19  0.2767247067E-03
  0.5429536967E+00  0.1000000000E+01  0.0000000000E+00  0.1336832718E-02  0.3932417369E-19  0.6784804647E-02  0.6595497231E+15  0.7391831138E-03  0.2330754515E-19  0.6770730665E-02
  0.4469889352E+00  0.1000000000E+01  0.0000000000E+00 -0.1585860284E-02 -0.2939757931E-19  0.6405421221E-03  0.6595497231E+15 -0.1742260427E-02 -0.3322100671E-19  0.5535282159E-03
  0.4000000000E+00  0.1000000000E+01  0.0000000000E+00  0.1570044611E-01  0.3205602359E-19  0.7576186248E-02  0.6595497231E+15  0.1508334623E-01  0.3196406789E-19  0.7271687136E-02
  0.8000000000E+00  0.1000000000E+01  0.4698893521E-01  0.3720493139E+00 -0.2297460233E-16  0.1690602196E-01  0.6595497231E+15  0.3719935425E+00 -0.2297106711E-16  0.1455975262E-01
  0.7530110648E+00  0.1000000000E+01  0.4698893521E-01  0.5618216843E+00 -0.2262403861E-16 -0.4030482044E-01  0.6595497231E+15  0.5615131183E+00 -0.2259960023E-16 -0.4375522412E-01
  0.6570463033E+00  0.1000000000E+01  0.4698893521E-01  0.3309284914E+00 -0.4054589775E-17 -0.7554069845E-02  0.6595497231E+15  0.3298455171E+00 -0.4075675213E-17 -0.1168085144E-01
  0.5429536967E+00  0.1000000000E+01  0.4698893521E-01  0.3488218574E+00  0.4631689415E-17  0.6007748037E-02  0.6595497231E+15  0.3481536088E+00  0.4618019074E-17  0.2022591261E-02
  0.4469889352E+00  0.1000000000E+01  0.4698893521E-01  0.2123908442E+00  0.4177858307E-17  0.1509899587E-01  0.6595497231E+15  0.2121807219E+00  0.4182981400E-17  0.1059029991E-01
  0.4000000000E+00  0.1000000000E+01  0.4698893521E-01  0.3161850154E+00  0.2984065081E-17 -0.3064188328E-01  0.6595497231E+15  0.3146523407E+00  0.2992731845E-17 -0.3457355156E-01
  0.8000000000E+00  0.1000000000E+01  0.1429536967E+00  0.1198994770E+01 -0.5186392923E-16 -0.3641397768E+00  0.6595497231E+15  0.1202767645E+01 -0.5174645796E-16 -0.3674811657E+00
  0.7530110648E+00  0.1000000000E+01  0.1429536967E+00  0.1475452115E+01 -0.3230947888E-16 -0.2172059928E+00  0.6595497231E+15  0.1478373820E+01 -0.3229307707E-16 -0.2229437260E+00
  0.6570463033E+00  0.1000000000E+01  0.1429536967E+00  0.9985705550E+00 -0.2372826201E-17 -0.2089622185E+00  0.6595497231E+15  0.9981257000E+00 -0.2357747285E-17 -0.2173884366E+00
  0.5429536967E+00  0.1000000000E+01  0.1429536967E+00  0.8879134899E+00  0.1040850369E-16 -0.5914663143E-01  0.6595497231E+15  0.8877909298E+00  0.1039937668E-16 -0.6854767867E-01
  0.4469889352E+00  0.1000000000E+01  0.1429536967E+00  0.5626255974E+00  0.1020209252E-16 -0.1343233937E+00  0.6595497231E+15  0.5623563499E+00  0.1025368971E-16 -0.1443335999E+00
  0.4000000000E+00  0.1000000000E+01  0.1429536967E+00  0.6795923967E+00  0.1122044602E-16 -0.1094074415E+00  0.6595497231E+15  0.6752477936E+00  0.1115846700E-16 -0.1187368465E+00
  0.8000000000E+00  0.1000000000E+01  0.2570463033E+00  0.2347730066E+01 -0.1040925678E-16 -0.9695249841E+00  0.6595497231E+15  0.2358172576E+01 -0.1038645385E-16 -0.9770704127E+00
  0.7530110648E+00  0.1000000000E+01  0.2570463033E+00  0.2187177863E+01 -0.6400083565E-17 -0.7129285863E+00  0.6595497231E+15  0.2195198581E+01 -0.6576708203E-17 -0.7225284165E+00
  0.6570463033E+00  0.1000000000E+01  0.2570463033E+00  0.1652335620E+01 -0.1679893824E-17 -0.6409161290E+00  0.6595497231E+15  0.1654225680E+01 -0.1723336899E-17 -0.6533944064E+00
  0.5429536967E+00  0.1000000000E+01  0.2570463033E+00  0.1234782699E+01  0.4196657695E-17 -0.3687437491E+00  0.6595497231E+15  0.1236133198E+01  0.4222020253E-17 -0.3835497991E+00
  0.4469889352E+00  0.1000000000E+01  0.2570463033E+00  0.8565500804E+00  0.5152062254E-17 -0.4626459013E+00  0.6595497231E+15  0.8564324676E+00  0.4949031394E-17 -0.4783705398E+00
  0.4000000000E+00  0.1000000000E+01  0.2570463033E+00  0.8000664936E+00  0.4913086136E-17 -0.4096145121E+00  0.6595497231E+15  0.7934503592E+00  0.4907814843E-17 -0.4250433094E+00
  0.8000000000E+00  0.1000000000E+01  0.3530110648E+00  0.2683978551E+01  0.4343605108E-17 -0.1527132701E+01  0.6595497231E+15  0.2700688893E+01  0.4331001774E-17 -0.1545739835E+01
  0.7530110648E+00  0.1000000000E+01  0.3530110648E+00  0.2539416506E+01  0.9040646751E-17 -0.1299287290E+01  0.6595497231E+15  0.2551537370E+01  0.9682758349E-17 -0.1320973779E+01
  0.6570463033E+00  0.1000000000E+01  0.3530110648E+00  0.1932683337E+01  0.6441662142E-18 -0.1097785200E+01  0.6595497231E+15  0.1938520612E+01  0.8607350623E-18 -0.1125652836E+01
  0.5429536967E+00  0.1000000000E+01  0.3530110648E+00  0.1417369023E+01  0.2175671134E-19 -0.7607768339E+00  0.6595497231E+15  0.1420202728E+01  0.1467549259E-18 -0.7945410072E+00
  0.4469889352E+00  0.1000000000E+01  0.3530110648E+00  0.9463365932E+00  0.4989976414E-17 -0.7788787562E+00  0.6595497231E+15  0.9436234230E+00  0.5246398663E-17 -0.8084586388E+00
  0.4000000000E+00  0.1000000000E+01  0.3530110648E+00  0.8859581327E+00  0.5333997295E-17 -0.7233353226E+00  0.6595497231E+15  0.8755036658E+00  0.5342710548E-17 -0.7493685461E+00
  0.8000000000E+00  0.1000000000E+01  0.4000000000E+00  0.2824909533E+01 -0.1800497706E-17 -0.1860027546E+01  0.6595497231E+15  0.2846892724E+01 -0.1803706646E-17 -0.1886864880E+01
  0.7530110648E+00  0.1000000000E+01  0.4000000000E+00  0.2550053358E+01  0.1048446552E-17 -0.1570320887E+01  0.6595497231E+15  0.2565957161E+01  0.1266871257E-17 -0.1602305770E+01
  0.6570463033E+00  0.1000000000E+01  0.4000000000E+00  0.1980043270E+01  0.2426489434E-17 -0.1352275643E+01  0.6595497231E+15  0.1991023214E+01  0.2299991049E-17 -0.1397163093E+01
  0.5429536967E+00  0.1000000000E+01  0.4000000000E+00  0.1432164686E+01  0.8466847706E-17 -0.1010216243E+01  0.6595497231E+15  0.1434951227E+01  0.8009898902E-17 -0.1065955110E+01
  0.4469889352E+00  0.1000000000E+01  0.4000000000E+00  0.1025417067E+01  0.8413573625E-17 -0.9630512006E+00  0.6595497231E+15  0.1016263008E+01  0.8403277983E-17 -0.1006879263E+01
  0.4000000000E+00  0.1000000000E+01  0.4000000000E+00  0.8648103021E+00  0.7377235637E-17 -0.8748866415E+00  0.6595497231E+15  0.8512805983E+00  0.7379567032E-17 -0.9108593573E+00
ZONE I=6, J=6, K=1, F=POINT
  0.1200000000E+01  0.1000000000E+01  0.0000000000E+00 -0.3109951965E-01  0.5719893550E-19  0.3701040493E-01  0.6595497231E+15 -0.3099412468E-01  0.5930676989E-19  0.3703001644E-01
  0.1153011065E+01  0.1000000000E+01  0.0000000000E+00 -0.4312587762E-02 -0.1919507874E-18 -0.9791115590E-02  0.6595497231E+15 -0.3906582958E-02 -0.1766823290E-18 -0.9653006989E-02
  0.1057046303E+01  0.1000000000E+01  0.0000000000E+00  0.3037898060E-02  0.4190950812E-19  0.5824582682E-02  0.6595497231E+15  0.3267042794E-02  0.4695291920E-19  0.5775038685E-02
  0.9429536967E+00  0.1000000000E+01  0.0000000000E+00 -0.1450815054E-02  0.1644678267E-20 -0.8328483257E-02  0.6595497231E+15 -0.1418691592E-02  0.2809273299E-20 -0.8295649995E-02
  0.8469889352E+00  0.1000000000E+01  0.0000000000E+00  0.4004649918E-02 -0.2392587163E-19  0.5558333626E-02  0.6595497231E+15  0.3929982747E-02 -0.2582190329E-19  0.5501839160E-02
  0.8000000000E+00  0.1000000000E+01  0.0000000000E+00 -0.2652542975E-01 -0.9506916555E-19 -0.1060607616E-01  0.6595497231E+15 -0.2727823856E-01 -0.9702464199E-19 -0.1078436954E-01
  0.1200000000E+01  0.1000000000E+01  0.4698893521E-01  0.2287132566E+01 -0.4197132879E-16 -0.1993248877E+00  0.6595497231E+15  0.2290097899E+01 -0.4207560058E-16 -0.2040081782E+00
  0.1153011065E+01  0.1000000000E+01  0.4698893521E-01  0.1590361730E+01 -0.2585464591E-16 -0.5440720623E-01  0.6595497231E+15  0.1592424286E+01 -0.2591364623E-16 -0.5771366588E-01
  0.1057046303E+01  0.1000000000E+01  0.4698893521E-01  0.1440851129E+01 -0.1167660593E-16 -0.8989845311E-01  0.6595497231E+15  0.1442478515E+01 -0.1165700939E-16 -0.8990998460E-01
  0.9429536967E+00  0.1000000000E+01  0.4698893521E-01  0.8172898097E+00 -0.1402700623E-16 -0.7552305999E-01  0.6595497231E+15  0.8191745082E+00 -0.1407369376E-16 -0.7557615205E-01
  0.8469889352E+00  0.1000000000E+01  0.4698893521E-01  0.7044652034E+00 -0.2701566377E-16 -0.7011502224E-01  0.6595497231E+15  0.7057480281E+00 -0.2707033101E-16 -0.7162052431E-01
  0.8000000000E+00  0.1000000000E+01  0.4698893521E-01  0.3106631617E+00 -0.2227285192E-16  0.1896595474E-01  0.6595497231E+15  0.3112223479E+00 -0.2228118414E-16  0.1656582760E-01
  0.1200000000E+01  0.1000000000E+01  0.1429536967E+00  0.5346350731E+01 -0.5784872666E-16 -0.6386443510E+00  0.6595497231E+15  0.5351542715E+01 -0.5786017279E-16 -0.6332902263E+00
  0.1153011065E+01  0.1000000000E+01  0.1429536967E+00  0.3878850589E+01 -0.6653671095E-16 -0.8481959989E+00  0.6595497231E+15  0.3878361958E+01 -0.6665596396E-16 -0.8418975293E+00
  0.1057046303E+01  0.1000000000E+01  0.1429536967E+00  0.3460443207E+01 -0.3665580434E-16 -0.6331305544E+00  0.6595497231E+15  0.3461160553E+01 -0.3665960652E-16 -0.6263284309E+00
  0.9429536967E+00  0.1000000000E+01  0.1429536967E+00  0.2159672503E+01 -0.3221954104E-16 -0.7372753408E+00  0.6595497231E+15  0.2164648895E+01 -0.3221399843E-16 -0.7327917923E+00
  0.8469889352E+00  0.1000000000E+01  0.1429536967E+00  0.1845397311E+01 -0.4835867718E-16 -0.3847943332E+00  0.6595497231E+15  0.1850532926E+01 -0.4846958642E-16 -0.3855877648E+00
  0.8000000000E+00  0.1000000000E+01  0.1429536967E+00  0.1115270819E+01 -0.5407771967E-16 -0.3657962115E+00  0.6595497231E+15  0.1120543017E+01 -0.5398087741E-16 -0.3691020806E+00
  0.1200000000E+01  0.1000000000E+01  0.2570463033E+00  0.5790350503E+01 -0.5629371822E-17 -0.1771575285E+01  0.6595497231E+15  0.5790253067E+01 -0.5561386595E-17 -0.1767126704E+01
  0.1153011065E+01  0.1000000000E+01  0.2570463033E+00  0.5239754507E+01 -0.3649926781E-16 -0.2028367284E+01  0.6595497231E+15  0.5239411277E+01 -0.3634360630E-16 -0.2025189296E+01
  0.1057046303E+01  0.1000000000E+01  0.2570463033E+00  0.4358800864E+01 -0.2900908312E-16 -0.1644022071E+01  0.6595497231E+15  0.4361614085E+01 -0.2901353452E-16 -0.1642001877E+01
  0.9429536967E+00  0.1000000000E+01  0.2570463033E+00  0.3329544414E+01 -0.2725375878E-16 -0.1687991514E+01  0.6595497231E+15  0.3339060530E+01 -0.2774167942E-16 -0.1688879658E+01
  0.8469889352E+00  0.1000000000E+01  0.2570463033E+00  0.2733713446E+01 -0.1132504107E-16 -0.1047323331E+01  0.6595497231E+15  0.2746007718E+01 -0.1100732605E-16 -0.1052444574E+01
  0.8000000000E+00  0.1000000000E+01  0.2570463033E+00  0.2309653175E+01 -0.1056672681E-16 -0.9721578592E+00  0.6595497231E+15  0.2320456192E+01 -0.1053683256E-16 -0.9792842038E+00
  0.1200000000E+01  0.1000000000E+01  0.3530110648E+00  0.6214489582E+01  0.3261485642E-16 -0.2937038802E+01  0.6595497231E+15  0.6216661560E+01  0.3263884018E-16 -0.2943864625E+01
  0.1153011065E+01  0.1000000000E+01  0.3530110648E+00  0.5472540651E+01  0.1404650563E-16 -0.2884891729E+01  0.6595497231E+15  0.5472583345E+01  0.1405947772E-16 -0.2891512817E+01
  0.1057046303E+01  0.1000000000E+01  0.3530110648E+00  0.4690088894E+01 -0.6097714226E-17 -0.2539319303E+01  0.6595497231E+15  0.4694367733E+01 -0.5994278203E-17 -0.2546677953E+01
  0.9429536967E+00  0.1000000000E+01  0.3530110648E+00  0.3668402584E+01 -0.1201775718E-16 -0.2337097207E+01  0.6595497231E+15  0.3681150278E+01 -0.1233304511E-16 -0.2347661839E+01
  0.8469889352E+00  0.1000000000E+01  0.3530110648E+00  0.3140156508E+01  0.9844816865E-18 -0.1718477003E+01  0.6595497231E+15  0.3156928184E+01  0.1581650898E-17 -0.1733817697E+01
  0.8000000000E+00  0.1000000000E+01  0.3530110648E+00  0.2636987451E+01  0.4405000183E-17 -0.1527441817E+01  0.6595497231E+15  0.2654471794E+01  0.4402201390E-17 -0.1546081784E+01
  0.1200000000E+01  0.1000000000E+01  0.4000000000E+00  0.5990297341E+01  0.3742987777E-16 -0.3280780985E+01  0.6595497231E+15  0.5989902269E+01  0.3743671990E-16 -0.3279067393E+01
  0.1153011065E+01  0.1000000000E+01  0.4000000000E+00  0.5608452060E+01  0.2945014516E-16 -0.3418895837E+01  0.6595497231E+15  0.5608659154E+01  0.2943569654E-16 -0.3417913292E+01
  0.1057046303E+01  0.1000000000E+01  0.4000000000E+00  0.4681794884E+01  0.4941113010E-17 -0.2952837282E+01  0.6595497231E+15  0.4687649748E+01  0.4976446298E-17 -0.2956774063E+01
  0.9429536967E+00  0.1000000000E+01  0.4000000000E+00  0.3776103056E+01 -0.1106876379E-16 -0.2726655947E+01  0.6595497231E+15  0.3791085094E+01 -0.1148948880E-16 -0.2736348857E+01
  0.8469889352E+00  0.1000000000E+01  0.4000000000E+00  0.3131049202E+01 -0.6554373382E-17 -0.2021443901E+01  0.6595497231E+15  0.3152556822E+01 -0.6318820558E-17 -0.2042299583E+01
  0.8000000000E+00  0.1000000000E+01  0.4000000000E+00  0.2821238397E+01 -0.1777987843E-17 -0.1863461046E+01  0.6595497231E+15  0.2842675788E+01 -0.1782674017E-17 -0.1889877483E+01
ZONE I=6, J=6, K=1, F=POINT
  0.1600000000E+01  0.1000000000E+01  0.0000000000E+00  0.1315563283E+00 -0.9352393754E-18 -0.7137046395E-01  0.6595497231E+15  0.1322210725E+00 -0.1046626317E-17 -0.7187143313E-01
  0.1553011065E+01  0.1000000000E+01  0.0000000000E+00  0.1107853112E-01 -0.1349381248E-17  0.4522001769E-01  0.6595497231E+15  0.1166219555E-01 -0.1402153284E-17  0.4499819036E-01
  0.1457046303E+01  0.1000000000E+01  0.0000000000E+00 -0.6584885007E-02 -0.1120464282E-18 -0.3216339623E-02  0.6595497231E+15 -0.6310088847E-02 -0.1378420577E-18 -0.3209593263E-02
  0.1342953697E+01  0.1000000000E+01  0.0000000000E+00  0.5991541384E-02  0.4421404057E-18  0.2971968913E-01  0.6595497231E+15  0.6123517594E-02  0.4513381720E-18  0.2951299700E-01
  0.1246988935E+01  0.1000000000E+01  0.0000000000E+00 -0.6924182713E-02  0.1336650251E-18 -0.8286566269E-02  0.6595497231E+15 -0.7034797455E-02  0.1328922643E-18 -0.8190540110E-02
  0.1200000000E+01  0.1000000000E+01  0.0000000000E+00  0.5866136047E-01  0.6148085347E-19  0.3702657132E-01  0.6595497231E+15  0.5881254881E-01  0.6386893296E-19  0.3703001613E-01
  0.1600000000E+01  0.1000000000E+01  0.4698893521E-01  0.2996182867E+01 -0.8740452878E-16  0.2429893673E+00  0.6595497231E+15  0.2999094441E+01 -0.8748287534E-16  0.2292498710E+00
  0.1553011065E+01  0.1000000000E+01  0.4698893521E-01  0.3513049368E+01 -0.4340517065E-16 -0.2609489116E+00  0.6595497231E+15  0.3515304523E+01 -0.4332343082E-16 -0.2729877530E+00
  0.1457046303E+01  0.1000000000E+01  0.4698893521E-01  0.2575295399E+01 -0.4220078532E-17 -0.7636137655E-01  0.6595497231E+15  0.2577705504E+01 -0.4298996031E-17 -0.8239725681E-01
  0.1342953697E+01  0.1000000000E+01  0.4698893521E-01  0.2596766321E+01  0.2856698374E-16 -0.5484025887E-01  0.6595497231E+15  0.2599763156E+01  0.2859051988E-16 -0.5768644326E-01
  0.1246988935E+01  0.1000000000E+01  0.4698893521E-01  0.2020824882E+01 -0.7093252366E-17 -0.2522227796E-01  0.6595497231E+15  0.2023200181E+01 -0.6982880686E-17 -0.2971612435E-01
  0.1200000000E+01  0.1000000000E+01  0.4698893521E-01  0.2385753625E+01 -0.4619103967E-16 -0.2050201172E+00  0.6595497231E+15  0.2386689451E+01 -0.4627025143E-16 -0.2093180183E+00
  0.1600000000E+01  0.1000000000E+01  0.1429536967E+00  0.6432507277E+01 -0.2662041618E-15 -0.1717579112E+01  0.6595497231E+15  0.6418049385E+01 -0.2661026953E-15 -0.1731585182E+01
  0.1553011065E+01  0.1000000000E+01  0.1429536967E+00  0.8160585947E+01 -0.1415572315E-15 -0.8854077137E+00  0.6595497231E+15  0.8156879040E+01 -0.1415236734E-15 -0.8971720527E+00
  0.1457046303E+01  0.1000000000E+01  0.1429536967E+00  0.6169302554E+01  0.3119888830E-16 -0.8857350883E+00  0.6595497231E+15  0.6165446812E+01  0.3077087337E-16 -0.8911370251E+00
  0.1342953697E+01  0.1000000000E+01  0.1429536967E+00  0.6167078023E+01  0.1000728229E-15 -0.1971909525E+00  0.6595497231E+15  0.6167879277E+01  0.1001202526E-15 -0.1954699069E+00
  0.1246988935E+01  0.1000000000E+01  0.1429536967E+00  0.4799932913E+01  0.2655429714E-16 -0.7649759602E+00  0.6595497231E+15  0.4803507981E+01  0.2642057499E-16 -0.7598639442E+00
  0.1200000000E+01  0.1000000000E+01  0.1429536967E+00  0.5513435038E+01 -0.6201069556E-16 -0.6330698057E+00  0.6595497231E+15  0.5507801235E+01 -0.6191137152E-16 -0.6284774686E+00
  0.1600000000E+01  0.1000000000E+01  0.2570463033E+00  0.1149078051E+02  0.1052991319E-15 -0.3459293866E+01  0.6595497231E+15  0.1149394371E+02  0.1052212294E-15 -0.3474987540E+01
  0.1553011065E+01  0.1000000000E+01  0.2570463033E+00  0.1045095845E+02  0.1277826216E-15 -0.2384925102E+01  0.6595497231E+15  0.1044275837E+02  0.1275445732E-15 -0.2391800734E+01
  0.1457046303E+01  0.1000000000E+01  0.2570463033E+00  0.9141686969E+01  0.1843101233E-15 -0.2298332978E+01  0.6595497231E+15  0.9131478903E+01  0.1836269253E-15 -0.2298942227E+01
  0.1342953697E+01  0.1000000000E+01  0.2570463033E+00  0.7534234160E+01  0.1312302766E-15 -0.1216443052E+01  0.6595497231E+15  0.7532152604E+01  0.1310988570E-15 -0.1214811118E+01
  0.1246988935E+01  0.1000000000E+01  0.2570463033E+00  0.6274758838E+01  0.4257713333E-16 -0.1993123168E+01  0.6595497231E+15  0.6275533825E+01  0.4265822468E-16 -0.1989250469E+01
  0.1200000000E+01  0.1000000000E+01  0.2570463033E+00  0.5831011700E+01 -0.5907635264E-17 -0.1761834204E+01  0.6595497231E+15  0.5830441004E+01 -0.5831653510E-17 -0.1760247385E+01
  0.1600000000E+01  0.1000000000E+01  0.3530110648E+00  0.1007925997E+02  0.2098220204E-15 -0.3881824106E+01  0.6595497231E+15  0.1006704439E+02  0.2097714988E-15 -0.3889519952E+01
  0.1553011065E+01  0.1000000000E+01  0.3530110648E+00  0.1029873200E+02  0.2121199423E-15 -0.3824427777E+01  0.6595497231E+15  0.1028110112E+02  0.2119729604E-15 -0.3830288954E+01
  0.1457046303E+01  0.1000000000E+01  0.3530110648E+00  0.9126043654E+01  0.1968265333E-15 -0.3469219567E+01  0.6595497231E+15  0.9113684635E+01  0.1960253468E-15 -0.3471176466E+01
  0.1342953697E+01  0.1000000000E+01  0.3530110648E+00  0.7847853721E+01  0.1471254399E-15 -0.2750293193E+01  0.6595497231E+15  0.7847794374E+01  0.1471586439E-15 -0.2753968359E+01
  0.1246988935E+01  0.1000000000E+01  0.3530110648E+00  0.6419615882E+01  0.6302635452E-16 -0.2979423278E+01  0.6595497231E+15  0.6421134561E+01  0.6313363646E-16 -0.2985088229E+01
  0.1200000000E+01  0.1000000000E+01  0.3530110648E+00  0.6292965800E+01  0.3273555219E-16 -0.2937356024E+01  0.6595497231E+15  0.6290798000E+01  0.3272601442E-16 -0.2943930434E+01
  0.1600000000E+01  0.1000000000E+01  0.4000000000E+00  0.1029710630E+02  0.2116469433E-15 -0.4562829379E+01  0.6595497231E+15  0.1029038002E+02  0.2115453972E-15 -0.4564922037E+01
  0.1553011065E+01  0.1000000000E+01  0.4000000000E+00  0.9664126188E+01  0.2236124590E-15 -0.3826973716E+01  0.6595497231E+15  0.9647930104E+01  0.2239983927E-15 -0.3828811837E+01
  0.1457046303E+01  0.1000000000E+01  0.4000000000E+00  0.9066739876E+01  0.1902226075E-15 -0.4007321827E+01  0.6595497231E+15  0.9053280213E+01  0.1903669269E-15 -0.4010171190E+01
  0.1342953697E+01  0.1000000000E+01  0.4000000000E+00  0.7639551697E+01  0.1535926921E-15 -0.3178499047E+01  0.6595497231E+15  0.7641163596E+01  0.1535452009E-15 -0.3181636567E+01
  0.1246988935E+01  0.1000000000E+01  0.4000000000E+00  0.6578363606E+01  0.6248128038E-16 -0.3579544067E+01  0.6595497231E+15  0.6579092446E+01  0.6251609303E-16 -0.3578074092E+01
  0.1200000000E+01  0.1000000000E+01  0.4000000000E+00  0.5962832024E+01  0.3769122989E-16 -0.3268473603E+01  0.6595497231E+15  0.5965442187E+01  0.3767705163E-16 -0.3269635478E+01
ZONE I=6, J=6, K=1, F=POINT
  0.2000000000E+01  0.1000000000E+01  0.0000000000E+00  0.2402003536E+01  0.7404939210E-19  0.2123387038E+02  0.6595497231E+15  0.2430174850E+01  0.9533587479E-19  0.2215541279E+02
  0.1953011065E+01  0.1000000000E+01  0.0000000000E+00  0.1293762465E+01 -0.3737651650E-16 -0.1376331960E+00  0.6595497231E+15  0.1299663639E+01 -0.3616108307E-16 -0.1502887278E+00
  0.1857046303E+01  0.1000000000E+01  0.0000000000E+00 -0.3044668142E+00 -0.1867091589E-16  0.1520798026E+00  0.6595497231E+15 -0.3030952016E+00 -0.1905739948E-16  0.1503666745E+00
  0.1742953697E+01  0.1000000000E+01  0.0000000000E+00  0.1363151701E+00  0.2192306634E-18 -0.3707124621E-01  0.6595497231E+15  0.1385606196E+00  0.1111871138E-18 -0.3677064782E-01
  0.1646988935E+01  0.1000000000E+01  0.0000000000E+00 -0.1247913218E+00  0.3007351395E-18  0.6058380704E-01  0.6595497231E+15 -0.1231530825E+00  0.2711460509E-18  0.5951043814E-01
  0.1600000000E+01  0.1000000000E+01  0.0000000000E+00  0.8986874475E-01 -0.1014831958E-17 -0.8341876264E-01  0.6595497231E+15  0.8996079038E-01 -0.1128225297E-17 -0.8255466244E-01
  0.2000000000E+01  0.1000000000E+01  0.4698893521E-01 -0.1293584919E-01  0.7491229116E-18  0.4848454380E+02  0.6595497231E+15 -0.5529740563E-01  0.6887029901E-18  0.4866135614E+02
  0.1953011065E+01  0.1000000000E+01  0.4698893521E-01  0.1094998572E+02  0.1354460139E-15  0.1457074684E+01  0.6595497231E+15  0.1094855176E+02  0.1343431056E-15  0.1484278198E+01
  0.1857046303E+01  0.1000000000E+01  0.4698893521E-01  0.1159888873E+02  0.2862406361E-15 -0.1896860568E+01  0.6595497231E+15  0.1161334759E+02  0.2874062388E-15 -0.1887197428E+01
  0.1742953697E+01  0.1000000000E+01  0.4698893521E-01  0.5705238189E+01 -0.4230336878E-16 -0.6339164018E+00  0.6595497231E+15  0.5721314298E+01 -0.4200631525E-16 -0.6386953829E+00
  0.1646988935E+01  0.1000000000E+01  0.4698893521E-01  0.4444138466E+01 -0.1214186902E-15 -0.6131028911E+00  0.6595497231E+15  0.4454593843E+01 -0.1221553206E-15 -0.6243816761E+00
  0.1600000000E+01  0.1000000000E+01  0.4698893521E-01  0.2831654301E+01 -0.8455018076E-16  0.2288032139E+00  0.6595497231E+15  0.2844024462E+01 -0.8444974239E-16  0.2098011513E+00
  0.2000000000E+01  0.1000000000E+01  0.1429536967E+00 -0.2818052871E+00  0.2738629707E-17  0.5050580651E+02  0.6595497231E+15 -0.2577233318E+00  0.2748883613E-17  0.5044443675E+02
  0.1953011065E+01  0.1000000000E+01  0.1429536967E+00  0.2772382127E+01 -0.5118775306E-15  0.1635052155E+02  0.6595497231E+15  0.2767741058E+01 -0.5109649964E-15  0.1639913332E+02
  0.1857046303E+01  0.1000000000E+01  0.1429536967E+00  0.1264914593E+02 -0.2616527215E-15 -0.3654030176E+01  0.6595497231E+15  0.1266896250E+02 -0.2630618737E-15 -0.3639564744E+01
  0.1742953697E+01  0.1000000000E+01  0.1429536967E+00  0.9942476135E+01 -0.3340008455E-16 -0.4020768706E+01  0.6595497231E+15  0.9970492013E+01 -0.3117332822E-16 -0.4032936473E+01
  0.1646988935E+01  0.1000000000E+01  0.1429536967E+00  0.9377480218E+01 -0.1608578911E-15 -0.1977043115E+01  0.6595497231E+15  0.9391360882E+01 -0.1604575329E-15 -0.1991444797E+01
  0.1600000000E+01  0.1000000000E+01  0.1429536967E+00  0.6060638907E+01 -0.2828147859E-15 -0.1717900185E+01  0.6595497231E+15  0.6086156152E+01 -0.2830674413E-15 -0.1736266592E+01
  0.2000000000E+01  0.1000000000E+01  0.2570463033E+00  0.1912727329E-01  0.1133653283E-17  0.4987595677E+02  0.6595497231E+15  0.1811441453E-01  0.1093132889E-17  0.4988150128E+02