TITLE = "Generated from ../MESH/Convergence_0000000000.hmesh and Convergence_0000002900.hsol"
VARIABLES = "x","y","z","veloT_x","veloT_y","veloT_z","slr_4","velo_x","velo_y","velo_z"
ZONE I=6, J=6, K=1, F=POINT
  0.4000000000E+00  0.1000000000E+01  0.0000000000E+00 -0.1161208888E-01  0.2859084758E-19  0.7583741140E-02  0.6128613387E+15 -0.1161370791E-01  0.2821157981E-19  0.7576513873E-02
  0.3530110648E+00  0.1000000000E+01  0.0000000000E+00 -0.1080252461E-02  0.6972279983E-20 -0.3262177764E-03  0.6128613387E+15 -0.8409446024E-03  0.9245099765E-20 -0.3893051878E-03
  0.2570463033E+00  0.1000000000E+01  0.0000000000E+00  0.5924955037E-04  0.5948964871E-21  0.2305414176E-02  0.6128613387E+15  0.3705269317E-03  0.1191168314E-20  0.2286611629E-02
  0.1429536967E+00  0.1000000000E+01  0.0000000000E+00 -0.1130693093E-02  0.1212487218E-21 -0.1072574331E-02  0.6128613387E+15 -0.7913551104E-03  0.2620800511E-21 -0.1106544788E-02
  0.4698893521E-01  0.1000000000E+01  0.0000000000E+00  0.1633611737E-02 -0.2307054529E-20  0.1983126294E-02  0.6128613387E+15  0.1938026410E-02 -0.2230684290E-20  0.1957672023E-02
  0.0000000000E+00  0.1000000000E+01  0.0000000000E+00 -0.7501256091E-02  0.9879486038E-23  0.2098481114E-02  0.6128613387E+15 -0.7510259377E-02  0.1285088674E-22  0.2068657775E-02
  0.4000000000E+00  0.1000000000E+01  0.4698893521E-01  0.2649900975E+00  0.2762893003E-17 -0.4090284514E-01  0.6128613387E+15  0.2642669373E+00  0.2767382675E-17 -0.5085993041E-01
  0.3530110648E+00  0.1000000000E+01  0.4698893521E-01  0.1270902343E+00  0.2461635252E-17 -0.4388574774E-02  0.6128613387E+15  0.1273296144E+00  0.2470092903E-17 -0.1323034827E-01
  0.2570463033E+00  0.1000000000E+01  0.4698893521E-01  0.1012243402E+00  0.8841071449E-18 -0.1597200558E-01  0.6128613387E+15  0.1010776484E+00  0.8745532236E-18 -0.2269108069E-01
  0.1429536967E+00  0.1000000000E+01  0.4698893521E-01  0.6199440706E-02  0.1708628304E-18 -0.1029847815E-01  0.6128613387E+15  0.5576294329E-02  0.1673971454E-18 -0.1324181567E-01
  0.4698893521E-01  0.1000000000E+01  0.4698893521E-01 -0.2019118600E-02  0.2336145848E-19 -0.8584449620E-02  0.6128613387E+15 -0.2042535809E-02  0.2377068237E-19 -0.9065859550E-02
  0.0000000000E+00  0.1000000000E+01  0.4698893521E-01 -0.1809722985E-01  0.9129244540E-21  0.2577261919E-02  0.6128613387E+15 -0.1805305252E-01  0.9417176124E-21  0.2311827013E-02
  0.4000000000E+00  0.1000000000E+01  0.1429536967E+00  0.5807129035E+00  0.9043138374E-17 -0.9383598877E-01  0.6128613387E+15  0.5738012586E+00  0.8949910696E-17 -0.1244752161E+00
  0.3530110648E+00  0.1000000000E+01  0.1429536967E+00  0.3277781373E+00  0.5219659922E-17 -0.1368114186E+00  0.6128613387E+15  0.3226520640E+00  0.5398673671E-17 -0.1630949449E+00
  0.2570463033E+00  0.1000000000E+01  0.1429536967E+00  0.2361993748E+00  0.1854497087E-17 -0.8962778972E-01  0.6128613387E+15  0.2301253120E+00  0.1842694954E-17 -0.1066572114E+00
  0.1429536967E+00  0.1000000000E+01  0.1429536967E+00  0.3998598233E-01  0.5509859066E-18 -0.1118994438E+00  0.6128613387E+15  0.3378545239E-01  0.5471509004E-18 -0.1186436097E+00
  0.4698893521E-01  0.1000000000E+01  0.1429536967E+00 -0.6310906709E-02  0.9458393761E-19 -0.1058138815E-01  0.6128613387E+15 -0.8703457916E-02  0.1006759369E-18 -0.1172639585E-01
  0.0000000000E+00  0.1000000000E+01  0.1429536967E+00 -0.2125059764E-01 -0.2309618586E-21 -0.8334306504E-03  0.6128613387E+15 -0.2123359452E-01  0.1899267339E-21 -0.1254198408E-02
  0.4000000000E+00  0.1000000000E+01  0.2570463033E+00  0.6495594383E+00  0.2328125182E-17 -0.3126164754E+00  0.6128613387E+15  0.6295368755E+00  0.2312086678E-17 -0.3596632360E+00
  0.3530110648E+00  0.1000000000E+01  0.2570463033E+00  0.4847187832E+00  0.1816516267E-17 -0.3659342588E+00  0.6128613387E+15  0.4647793745E+00  0.1241476503E-17 -0.4060756378E+00
  0.2570463033E+00  0.1000000000E+01  0.2570463033E+00  0.3101285177E+00  0.1031771518E-17 -0.2620184501E+00  0.6128613387E+15  0.2889517045E+00  0.1038233498E-17 -0.2866917379E+00
  0.1429536967E+00  0.1000000000E+01  0.2570463033E+00  0.9604745245E-01  0.9184543638E-18 -0.2713287330E+00  0.6128613387E+15  0.7896850394E-01  0.9225445920E-18 -0.2799850000E+00
  0.4698893521E-01  0.1000000000E+01  0.2570463033E+00  0.1118160696E-01  0.8283243871E-18 -0.5134458434E-01  0.6128613387E+15  0.4686873305E-02  0.8072229625E-18 -0.5299070883E-01
  0.0000000000E+00  0.1000000000E+01  0.2570463033E+00 -0.1401256115E-01 -0.2998211128E-20 -0.8850434593E-03  0.6128613387E+15 -0.1400285235E-01 -0.3826838389E-20 -0.1387116005E-02
  0.4000000000E+00  0.1000000000E+01  0.3530110648E+00  0.6684541798E+00  0.2321485840E-17 -0.5436614147E+00  0.6128613387E+15  0.6334681590E+00  0.2347599158E-17 -0.5903221639E+00
  0.3530110648E+00  0.1000000000E+01  0.3530110648E+00  0.4971461264E+00  0.2026943909E-17 -0.5671454256E+00  0.6128613387E+15  0.4626701494E+00  0.2019845064E-17 -0.6068305322E+00
  0.2570463033E+00  0.1000000000E+01  0.3530110648E+00  0.3228283703E+00  0.4778229873E-18 -0.4465967272E+00  0.6128613387E+15  0.2856828551E+00  0.8482024013E-18 -0.4722112208E+00
  0.1429536967E+00  0.1000000000E+01  0.3530110648E+00  0.1064483091E+00  0.1247726725E-17 -0.4011336449E+00  0.6128613387E+15  0.7818233851E-01  0.1317067829E-17 -0.4093431177E+00
  0.4698893521E-01  0.1000000000E+01  0.3530110648E+00  0.1683147528E-01  0.3633565684E-18 -0.1112244026E+00  0.6128613387E+15  0.7610027042E-02  0.3778311638E-18 -0.1128435262E+00
  0.0000000000E+00  0.1000000000E+01  0.3530110648E+00 -0.1416961225E-01  0.5975522807E-20 -0.1127110531E-02  0.6128613387E+15 -0.1432218222E-01  0.5202324930E-20 -0.1605484094E-02
  0.4000000000E+00  0.1000000000E+01  0.4000000000E+00  0.6430760450E+00  0.4372880171E-17 -0.6584467289E+00  0.6128613387E+15  0.5998322634E+00  0.4375104555E-17 -0.6981779503E+00
  0.3530110648E+00  0.1000000000E+01  0.4000000000E+00  0.5226897396E+00  0.3605840376E-17 -0.6740533259E+00  0.6128613387E+15  0.4825515730E+00  0.3689368444E-17 -0.7080314921E+00
  0.2570463033E+00  0.1000000000E+01  0.4000000000E+00  0.3256325804E+00  0.1023495146E-17 -0.5422144407E+00  0.6128613387E+15  0.2814452547E+00  0.9289763111E-18 -0.5644839184E+00
  0.1429536967E+00  0.1000000000E+01  0.4000000000E+00  0.1189497339E+00  0.1529734757E-17 -0.4691941603E+00  0.6128613387E+15  0.8521035573E-01  0.1459236146E-17 -0.4764895926E+00
  0.4698893521E-01  0.1000000000E+01  0.4000000000E+00  0.1433359934E-01  0.3517297747E-18 -0.1388722419E+00  0.6128613387E+15  0.4152329659E-02  0.3583166071E-18 -0.1398238693E+00
  0.0000000000E+00  0.1000000000E+01  0.4000000000E+00 -0.6540090497E-02  0.7902838449E-20 -0.2240640930E-02  0.6128613387E+15 -0.7351215588E-02  0.7973277716E-20 -0.2563837415E-02
ZONE I=6, J=6, K=1, F=POINT
  0.8000000000E+00  0.1000000000E+01  0.0000000000E+00  0.1728169741E-01 -0.8362624945E-19 -0.1156657713E-01  0.6128613387E+15  0.1770812813E-01 -0.8526507639E-19 -0.1182873260E-01
  0.7530110648E+00  0.1000000000E+01  0.0000000000E+00  0.1569832467E-02  0.6787680277E-19  0.5921346977E-02  0.6128613387E+15  0.1503193004E-02  0.7132675783E-19  0.5842353089E-02
  0.6570463033E+00  0.1000000000E+01  0.0000000000E+00 -0.7424760995E-03  0.1814601006E-19  0.1261692649E-03  0.6128613387E+15 -0.7861828599E-03  0.1983416297E-19  0.1435748276E-03
  0.5429536967E+00  0.1000000000E+01  0.0000000000E+00  0.5408566887E-03  0.1874093073E-19  0.6898158470E-02  0.6128613387E+15  0.5719391580E-03  0.2307416481E-19  0.6823846326E-02
  0.4469889352E+00  0.1000000000E+01  0.0000000000E+00 -0.2141415153E-02 -0.4754093644E-19  0.6667481577E-03  0.6128613387E+15 -0.2112337395E-02 -0.4279955572E-19  0.6532727260E-03
  0.4000000000E+00  0.1000000000E+01  0.0000000000E+00  0.1491562619E-01  0.3223545396E-19  0.7311973520E-02  0.6128613387E+15  0.1519248293E-01  0.3188874923E-19  0.7273092849E-02
  0.8000000000E+00  0.1000000000E+01  0.4698893521E-01  0.3074211993E+00 -0.2492170884E-16  0.7733741933E-02  0.6128613387E+15  0.3087116680E+00 -0.2493108481E-16 -0.9272324976E-02
  0.7530110648E+00  0.1000000000E+01  0.4698893521E-01  0.5055062414E+00 -0.2430291164E-16 -0.4943767195E-01  0.6128613387E+15  0.5049784864E+00 -0.2425004839E-16 -0.6805752965E-01
  0.6570463033E+00  0.1000000000E+01  0.4698893521E-01  0.2919188191E+00 -0.5210843769E-17 -0.1542919481E-01  0.6128613387E+15  0.2910225082E+00 -0.5249451607E-17 -0.3448342272E-01
  0.5429536967E+00  0.1000000000E+01  0.4698893521E-01  0.3264363541E+00  0.4108927143E-17 -0.3590302820E-02  0.6128613387E+15  0.3249706960E+00  0.4074492597E-17 -0.1952397544E-01
  0.4469889352E+00  0.1000000000E+01  0.4698893521E-01  0.2012907559E+00  0.3718206176E-17  0.3291651065E-02  0.6128613387E+15  0.1993870489E+00  0.3740236601E-17 -0.8746517938E-02
  0.4000000000E+00  0.1000000000E+01  0.4698893521E-01  0.3064741924E+00  0.2525137921E-17 -0.4165761514E-01  0.6128613387E+15  0.3059932843E+00  0.2528089825E-17 -0.5160274588E-01
  0.8000000000E+00  0.1000000000E+01  0.1429536967E+00  0.9377939416E+00 -0.5655430115E-16 -0.3327166125E+00  0.6128613387E+15  0.9443569319E+00 -0.5634789257E-16 -0.3729200984E+00
  0.7530110648E+00  0.1000000000E+01  0.1429536967E+00  0.1244479610E+01 -0.3631877088E-16 -0.1851688029E+00  0.6128613387E+15  0.1247660903E+01 -0.3605759728E-16 -0.2282693292E+00
  0.6570463033E+00  0.1000000000E+01  0.1429536967E+00  0.8306949349E+00 -0.5373445693E-17 -0.1724683757E+00  0.6128613387E+15  0.8286663841E+00 -0.5319159798E-17 -0.2178705248E+00
  0.5429536967E+00  0.1000000000E+01  0.1429536967E+00  0.7887567559E+00  0.8698953886E-17 -0.2726645823E-01  0.6128613387E+15  0.7822701333E+00  0.8488278986E-17 -0.6894765584E-01
  0.4469889352E+00  0.1000000000E+01  0.1429536967E+00  0.5054176342E+00  0.8728936113E-17 -0.1125258642E+00  0.6128613387E+15  0.4971864213E+00  0.8955023305E-17 -0.1472493413E+00
  0.4000000000E+00  0.1000000000E+01  0.1429536967E+00  0.6318030809E+00  0.9750113022E-17 -0.9329052081E-01  0.6128613387E+15  0.6246208595E+00  0.9653247356E-17 -0.1239360112E+00
  0.8000000000E+00  0.1000000000E+01  0.2570463033E+00  0.1770619981E+01 -0.1711160792E-16 -0.8071214852E+00  0.6128613387E+15  0.1788721483E+01 -0.1708342339E-16 -0.8520513152E+00
  0.7530110648E+00  0.1000000000E+01  0.2570463033E+00  0.1670782488E+01 -0.1244413389E-16 -0.5565452080E+00  0.6128613387E+15  0.1682607039E+01 -0.1321282473E-16 -0.6065446591E+00
  0.6570463033E+00  0.1000000000E+01  0.2570463033E+00  0.1264096429E+01 -0.5925953947E-17 -0.4964102461E+00  0.6128613387E+15  0.1264830353E+01 -0.5925730468E-17 -0.5542025085E+00
  0.5429536967E+00  0.1000000000E+01  0.2570463033E+00  0.9922339141E+00  0.8488770076E-18 -0.2401697932E+00  0.6128613387E+15  0.9805240533E+00  0.6716353044E-18 -0.2994296246E+00
  0.4469889352E+00  0.1000000000E+01  0.2570463033E+00  0.7098691102E+00  0.2616659792E-17 -0.3513945312E+00  0.6128613387E+15  0.6908577135E+00  0.1951494842E-17 -0.4041292821E+00
  0.4000000000E+00  0.1000000000E+01  0.2570463033E+00  0.6802320933E+00  0.2354002197E-17 -0.3119719039E+00  0.6128613387E+15  0.6602204217E+00  0.2335385726E-17 -0.3590656414E+00
  0.8000000000E+00  0.1000000000E+01  0.3530110648E+00  0.1840981441E+01 -0.3466283642E-17 -0.1205345404E+01  0.6128613387E+15  0.1871608330E+01 -0.3503195419E-17 -0.1242240767E+01
  0.7530110648E+00  0.1000000000E+01  0.3530110648E+00  0.1785774624E+01  0.4026747692E-18 -0.9933761956E+00  0.6128613387E+15  0.1809941302E+01  0.1723381994E-17 -0.1036939065E+01
  0.6570463033E+00  0.1000000000E+01  0.3530110648E+00  0.1356501239E+01 -0.3414820368E-17 -0.8291261820E+00  0.6128613387E+15  0.1364680015E+01 -0.2894033674E-17 -0.8843473079E+00
  0.5429536967E+00  0.1000000000E+01  0.3530110648E+00  0.1040478053E+01 -0.3492649936E-17 -0.5326728743E+00  0.6128613387E+15  0.1026956842E+01 -0.2146169352E-17 -0.5925177557E+00
  0.4469889352E+00  0.1000000000E+01  0.3530110648E+00  0.7109941864E+00  0.1539599891E-17 -0.5785505298E+00  0.6128613387E+15  0.6813364933E+00  0.1940732445E-17 -0.6320283274E+00
  0.4000000000E+00  0.1000000000E+01  0.3530110648E+00  0.7009793690E+00  0.2295408743E-17 -0.5434767797E+00  0.6128613387E+15  0.6658822828E+00  0.2325268829E-17 -0.5901191625E+00
  0.8000000000E+00  0.1000000000E+01  0.4000000000E+00  0.1872898726E+01 -0.1002450906E-16 -0.1449468547E+01  0.6128613387E+15  0.1909133159E+01 -0.1002193904E-16 -0.1484184116E+01
  0.7530110648E+00  0.1000000000E+01  0.4000000000E+00  0.1699198267E+01 -0.6233018086E-17 -0.1176436634E+01  0.6128613387E+15  0.1729829459E+01 -0.5956860174E-17 -0.1216649202E+01
  0.6570463033E+00  0.1000000000E+01  0.4000000000E+00  0.1328488961E+01 -0.3059674057E-17 -0.1002662074E+01  0.6128613387E+15  0.1340962826E+01 -0.3274257457E-17 -0.1052802371E+01
  0.5429536967E+00  0.1000000000E+01  0.4000000000E+00  0.9976036813E+00  0.3721139744E-17 -0.7215305383E+00  0.6128613387E+15  0.9831684400E+00  0.2880974128E-17 -0.7752303325E+00
  0.4469889352E+00  0.1000000000E+01  0.4000000000E+00  0.7478996287E+00  0.5113834027E-17 -0.7175367625E+00  0.6128613387E+15  0.7124949924E+00  0.4518709878E-17 -0.7639650223E+00
  0.4000000000E+00  0.1000000000E+01  0.4000000000E+00  0.6543210483E+00  0.4388112663E-17 -0.6576952501E+00  0.6128613387E+15  0.6111651830E+00  0.4391613045E-17 -0.6974610085E+00
ZONE I=6, J=6, K=1, F=POINT
  0.1200000000E+01  0.1000000000E+01  0.0000000000E+00 -0.3239097276E-01  0.5807707274E-19  0.3734134789E-01  0.6128613387E+15 -0.3159561382E-01  0.5939381890E-19  0.3686899809E-01
  0.1153011065E+01  0.1000000000E+01  0.0000000000E+00 -0.5612551472E-02 -0.2483889842E-18 -0.9623136016E-02  0.6128613387E+15 -0.4611326586E-02 -0.1961143529E-18 -0.9621135973E-02
  0.1057046303E+01  0.1000000000E+01  0.0000000000E+00  0.1667593127E-02  0.9542283290E-20  0.5954376268E-02  0.6128613387E+15  0.2575374482E-02  0.3216337561E-19  0.5938482197E-02
  0.9429536967E+00  0.1000000000E+01  0.0000000000E+00 -0.2770383550E-02  0.4096967185E-20 -0.8255832751E-02  0.6128613387E+15 -0.1651512460E-02  0.7879255491E-20 -0.8144255196E-02
  0.8469889352E+00  0.1000000000E+01  0.0000000000E+00  0.2803294825E-02 -0.2003829318E-19  0.5492112821E-02  0.6128613387E+15  0.4039772037E-02 -0.1891040461E-19  0.5318396951E-02
  0.8000000000E+00  0.1000000000E+01  0.0000000000E+00 -0.2784746113E-01 -0.9337708645E-19 -0.1103902467E-01  0.6128613387E+15 -0.2722600010E-01 -0.9510159238E-19 -0.1127697567E-01
  0.1200000000E+01  0.1000000000E+01  0.4698893521E-01  0.2085599006E+01 -0.4187371098E-16 -0.2218376047E+00  0.6128613387E+15  0.2088568657E+01 -0.4198247511E-16 -0.2138959095E+00
  0.1153011065E+01  0.1000000000E+01  0.4698893521E-01  0.1410920206E+01 -0.2656984485E-16 -0.7374284167E-01  0.6128613387E+15  0.1414659433E+01 -0.2669090539E-16 -0.6814460674E-01
  0.1057046303E+01  0.1000000000E+01  0.4698893521E-01  0.1295426030E+01 -0.1320602507E-16 -0.1030194764E+00  0.6128613387E+15  0.1299002535E+01 -0.1316494398E-16 -0.1042307653E+00
  0.9429536967E+00  0.1000000000E+01  0.4698893521E-01  0.7149093595E+00 -0.1598135786E-16 -0.8528891913E-01  0.6128613387E+15  0.7189292613E+00 -0.1609376549E-16 -0.9529039991E-01
  0.8469889352E+00  0.1000000000E+01  0.4698893521E-01  0.6276283822E+00 -0.2896855960E-16 -0.8040855934E-01  0.6128613387E+15  0.6313817980E+00 -0.2912176083E-16 -0.9582917500E-01
  0.8000000000E+00  0.1000000000E+01  0.4698893521E-01  0.2464984277E+00 -0.2422475808E-16  0.9792636597E-02  0.6128613387E+15  0.2484451201E+00 -0.2424644180E-16 -0.7262673972E-02
  0.1200000000E+01  0.1000000000E+01  0.1429536967E+00  0.4713669767E+01 -0.5906669882E-16 -0.6020955653E+00  0.6128613387E+15  0.4726522140E+01 -0.5929162490E-16 -0.5953595193E+00
  0.1153011065E+01  0.1000000000E+01  0.1429536967E+00  0.3288265070E+01 -0.6996387730E-16 -0.8041817184E+00  0.6128613387E+15  0.3301141966E+01 -0.6931027998E-16 -0.8016295892E+00
  0.1057046303E+01  0.1000000000E+01  0.1429536967E+00  0.2963313700E+01 -0.4195872609E-16 -0.5846127031E+00  0.6128613387E+15  0.2978113219E+01 -0.4200316759E-16 -0.5933941076E+00
  0.9429536967E+00  0.1000000000E+01  0.1429536967E+00  0.1782166590E+01 -0.3754631518E-16 -0.6903648950E+00  0.6128613387E+15  0.1796883251E+01 -0.3756311803E-16 -0.7144140281E+00
  0.8469889352E+00  0.1000000000E+01  0.1429536967E+00  0.1548211018E+01 -0.5293553359E-16 -0.3522024047E+00  0.6128613387E+15  0.1559155736E+01 -0.5301389006E-16 -0.3880037209E+00
  0.8000000000E+00  0.1000000000E+01  0.1429536967E+00  0.8541082319E+00 -0.5877530641E-16 -0.3343181704E+00  0.6128613387E+15  0.8624093380E+00 -0.5857649996E-16 -0.3744967405E+00
  0.1200000000E+01  0.1000000000E+01  0.2570463033E+00  0.4614308490E+01 -0.1172273037E-16 -0.1599726728E+01  0.6128613387E+15  0.4631790268E+01 -0.1167282501E-16 -0.1605359669E+01
  0.1153011065E+01  0.1000000000E+01  0.2570463033E+00  0.4121689168E+01 -0.4565251610E-16 -0.1838991004E+01  0.6128613387E+15  0.4144124029E+01 -0.4806085656E-16 -0.1847976236E+01
  0.1057046303E+01  0.1000000000E+01  0.2570463033E+00  0.3385858476E+01 -0.3958611859E-16 -0.1437597526E+01  0.6128613387E+15  0.3413594091E+01 -0.3954032981E-16 -0.1452690898E+01
  0.9429536967E+00  0.1000000000E+01  0.2570463033E+00  0.2544105404E+01 -0.3632397055E-16 -0.1491440833E+01  0.6128613387E+15  0.2573863865E+01 -0.3788378421E-16 -0.1517511126E+01
  0.8469889352E+00  0.1000000000E+01  0.2570463033E+00  0.2093698721E+01 -0.1964136633E-16 -0.8795305968E+00  0.6128613387E+15  0.2119491152E+01 -0.1931236949E-16 -0.9183034259E+00
  0.8000000000E+00  0.1000000000E+01  0.2570463033E+00  0.1732970943E+01 -0.1725558962E-16 -0.8095335348E+00  0.6128613387E+15  0.1752362108E+01 -0.1723699682E-16 -0.8541495053E+00
  0.1200000000E+01  0.1000000000E+01  0.3530110648E+00  0.4617061042E+01  0.2262722647E-16 -0.2631652078E+01  0.6128613387E+15  0.4639807219E+01  0.2265016320E-16 -0.2650776807E+01
  0.1153011065E+01  0.1000000000E+01  0.3530110648E+00  0.3945383685E+01  0.2137670365E-17 -0.2539647102E+01  0.6128613387E+15  0.3970719504E+01  0.1824502897E-17 -0.2559095789E+01
  0.1057046303E+01  0.1000000000E+01  0.3530110648E+00  0.3339201461E+01 -0.1805377153E-16 -0.2154127218E+01  0.6128613387E+15  0.3371031895E+01 -0.1781523095E-16 -0.2173431876E+01
  0.9429536967E+00  0.1000000000E+01  0.3530110648E+00  0.2549739356E+01 -0.2242788252E-16 -0.1962404057E+01  0.6128613387E+15  0.2588873671E+01 -0.2350356976E-16 -0.1986071051E+01
  0.8469889352E+00  0.1000000000E+01  0.3530110648E+00  0.2210838327E+01 -0.8409627457E-17 -0.1384188810E+01  0.6128613387E+15  0.2248653905E+01 -0.7068970853E-17 -0.1416377716E+01
  0.8000000000E+00  0.1000000000E+01  0.3530110648E+00  0.1794560226E+01 -0.3404735935E-17 -0.1205564641E+01  0.6128613387E+15  0.1826079988E+01 -0.3445836990E-17 -0.1242503927E+01
  0.1200000000E+01  0.1000000000E+01  0.4000000000E+00  0.4218155372E+01  0.2642551198E-16 -0.2882911303E+01  0.6128613387E+15  0.4240278382E+01  0.2643161940E-16 -0.2909399407E+01
  0.1153011065E+01  0.1000000000E+01  0.4000000000E+00  0.3912844525E+01  0.1694224704E-16 -0.2973522513E+01  0.6128613387E+15  0.3937321398E+01  0.1742933126E-16 -0.3000222654E+01
  0.1057046303E+01  0.1000000000E+01  0.4000000000E+00  0.3177031870E+01 -0.7542246274E-17 -0.2459458528E+01  0.6128613387E+15  0.3209035806E+01 -0.7404688244E-17 -0.2484191745E+01
  0.9429536967E+00  0.1000000000E+01  0.4000000000E+00  0.2521916323E+01 -0.2211753430E-16 -0.2244909356E+01  0.6128613387E+15  0.2563441996E+01 -0.2311394128E-16 -0.2271664551E+01
  0.8469889352E+00  0.1000000000E+01  0.4000000000E+00  0.2086296273E+01 -0.1585039372E-16 -0.1590761832E+01  0.6128613387E+15  0.2128218946E+01 -0.1542280675E-16 -0.1622023974E+01
  0.8000000000E+00  0.1000000000E+01  0.4000000000E+00  0.1869757086E+01 -0.1000242671E-16 -0.1452611993E+01  0.6128613387E+15  0.1905035579E+01 -0.1000465145E-16 -0.1487041355E+01
ZONE I=6, J=6, K=1, F=POINT
  0.1600000000E+01  0.1000000000E+01  0.0000000000E+00  0.1301534697E+00 -0.8898889292E-18 -0.7228500400E-01  0.6128613387E+15  0.1299170165E+00 -0.1012839280E-17 -0.7235914966E-01
  0.1553011065E+01  0.1000000000E+01  0.0000000000E+00  0.9772094531E-02 -0.1282353881E-17  0.4540066127E-01  0.6128613387E+15  0.9955034483E-02 -0.1322076191E-17  0.4515881206E-01
  0.1457046303E+01  0.1000000000E+01  0.0000000000E+00 -0.7745671217E-02 -0.7158399682E-19 -0.3140203301E-02  0.6128613387E+15 -0.7795508521E-02 -0.9045831246E-19 -0.3139433368E-02
  0.1342953697E+01  0.1000000000E+01  0.0000000000E+00  0.4932669953E-02  0.3814433042E-18  0.2991187364E-01  0.6128613387E+15  0.5083998218E-02  0.3909899394E-18  0.2982810164E-01
  0.1246988935E+01  0.1000000000E+01  0.0000000000E+00 -0.8147145406E-02  0.1234312423E-18 -0.8076420961E-02  0.6128613387E+15 -0.7772761766E-02  0.1234511878E-18 -0.8148042863E-02
  0.1200000000E+01  0.1000000000E+01  0.0000000000E+00  0.5722421263E-01  0.6191371069E-19  0.3738088309E-01  0.6128613387E+15  0.5768023616E-01  0.6365985436E-19  0.3689654674E-01
  0.1600000000E+01  0.1000000000E+01  0.4698893521E-01  0.2965447770E+01 -0.8955625000E-16  0.2006079557E+00  0.6128613387E+15  0.2964214380E+01 -0.8952586804E-16  0.2011915639E+00
  0.1553011065E+01  0.1000000000E+01  0.4698893521E-01  0.3410440886E+01 -0.4511921026E-16 -0.3024439747E+00  0.6128613387E+15  0.3409822693E+01 -0.4513769139E-16 -0.3007477262E+00
  0.1457046303E+01  0.1000000000E+01  0.4698893521E-01  0.2394641846E+01 -0.5292736870E-17 -0.1092081818E+00  0.6128613387E+15  0.2394654284E+01 -0.5275829136E-17 -0.1037654278E+00
  0.1342953697E+01  0.1000000000E+01  0.4698893521E-01  0.2369120769E+01  0.2910675501E-16 -0.8028680014E-01  0.6128613387E+15  0.2369535340E+01  0.2911328977E-16 -0.7242358003E-01
  0.1246988935E+01  0.1000000000E+01  0.4698893521E-01  0.1809793041E+01 -0.6439656629E-17 -0.4651029998E-01  0.6128613387E+15  0.1810947380E+01 -0.6395601749E-17 -0.3772068935E-01
  0.1200000000E+01  0.1000000000E+01  0.4698893521E-01  0.2183204937E+01 -0.4606311048E-16 -0.2275083410E+00  0.6128613387E+15  0.2184238406E+01 -0.4614340554E-16 -0.2191966367E+00
  0.1600000000E+01  0.1000000000E+01  0.1429536967E+00  0.6075994000E+01 -0.2677197657E-15 -0.1964471486E+01  0.6128613387E+15  0.6057955765E+01 -0.2678586314E-15 -0.1960650883E+01
  0.1553011065E+01  0.1000000000E+01  0.1429536967E+00  0.7692844154E+01 -0.1474538082E-15 -0.1104915614E+01  0.6128613387E+15  0.7687512050E+01 -0.1474576031E-15 -0.1099536222E+01
  0.1457046303E+01  0.1000000000E+01  0.1429536967E+00  0.5535278227E+01  0.3166643424E-16 -0.1023276968E+01  0.6128613387E+15  0.5532762577E+01  0.3131377246E-16 -0.1014536701E+01
  0.1342953697E+01  0.1000000000E+01  0.1429536967E+00  0.5463450671E+01  0.1021339785E-15 -0.2350643870E+00  0.6128613387E+15  0.5462855770E+01  0.1021284361E-15 -0.2246823616E+00
  0.1246988935E+01  0.1000000000E+01  0.1429536967E+00  0.4138020962E+01  0.2657840795E-16 -0.7329807723E+00  0.6128613387E+15  0.4141629877E+01  0.2641807187E-16 -0.7234162065E+00
  0.1200000000E+01  0.1000000000E+01  0.1429536967E+00  0.4878316740E+01 -0.6322320945E-16 -0.5969364476E+00  0.6128613387E+15  0.4881214648E+01 -0.6332549858E-16 -0.5907785157E+00
  0.1600000000E+01  0.1000000000E+01  0.2570463033E+00  0.1057867969E+02  0.8597384117E-16 -0.4038991351E+01  0.6128613387E+15  0.1058177159E+02  0.8591293875E-16 -0.4035447153E+01
  0.1553011065E+01  0.1000000000E+01  0.2570463033E+00  0.9407030254E+01  0.1106419678E-15 -0.2878026565E+01  0.6128613387E+15  0.9403643268E+01  0.1106261228E-15 -0.2870973824E+01
  0.1457046303E+01  0.1000000000E+01  0.2570463033E+00  0.7914886066E+01  0.1807663900E-15 -0.2576832826E+01  0.6128613387E+15  0.7912715487E+01  0.1805138235E-15 -0.2572720504E+01
  0.1342953697E+01  0.1000000000E+01  0.2570463033E+00  0.6253373422E+01  0.1324336245E-15 -0.1228380120E+01  0.6128613387E+15  0.6256244698E+01  0.1325617924E-15 -0.1228004638E+01
  0.1246988935E+01  0.1000000000E+01  0.2570463033E+00  0.5051695278E+01  0.3982937827E-16 -0.1845639581E+01  0.6128613387E+15  0.5060848458E+01  0.4023017611E-16 -0.1848561847E+01
  0.1200000000E+01  0.1000000000E+01  0.2570463033E+00  0.4654230320E+01 -0.1201406764E-16 -0.1590912123E+01  0.6128613387E+15  0.4670995396E+01 -0.1197414800E-16 -0.1598873683E+01
  0.1600000000E+01  0.1000000000E+01  0.3530110648E+00  0.8730065821E+01  0.1698325027E-15 -0.4778025610E+01  0.6128613387E+15  0.8728286046E+01  0.1697892257E-15 -0.4771613808E+01
  0.1553011065E+01  0.1000000000E+01  0.3530110648E+00  0.8805708235E+01  0.1811331518E-15 -0.4575657395E+01  0.6128613387E+15  0.8806311860E+01  0.1811241647E-15 -0.4572852768E+01
  0.1457046303E+01  0.1000000000E+01  0.3530110648E+00  0.7447582311E+01  0.1845549116E-15 -0.3859789134E+01  0.6128613387E+15  0.7451009752E+01  0.1846988513E-15 -0.3863431322E+01
  0.1342953697E+01  0.1000000000E+01  0.3530110648E+00  0.6129303116E+01  0.1428942288E-15 -0.2729527639E+01  0.6128613387E+15  0.6137220329E+01  0.1432311898E-15 -0.2741037849E+01
  0.1246988935E+01  0.1000000000E+01  0.3530110648E+00  0.4770557053E+01  0.5585176714E-16 -0.2722861361E+01  0.6128613387E+15  0.4784932746E+01  0.5567097160E-16 -0.2739988703E+01
  0.1200000000E+01  0.1000000000E+01  0.3530110648E+00  0.4694346022E+01  0.2272778223E-16 -0.2632279051E+01  0.6128613387E+15  0.4713106916E+01  0.2272064674E-16 -0.2651009616E+01
  0.1600000000E+01  0.1000000000E+01  0.4000000000E+00  0.8777704924E+01  0.1655816653E-15 -0.5636088536E+01  0.6128613387E+15  0.8779805755E+01  0.1655130741E-15 -0.5642118805E+01
  0.1553011065E+01  0.1000000000E+01  0.4000000000E+00  0.7994558868E+01  0.1883768339E-15 -0.4713004919E+01  0.6128613387E+15  0.7999043683E+01  0.1883913481E-15 -0.4717745761E+01
  0.1457046303E+01  0.1000000000E+01  0.4000000000E+00  0.7201568505E+01  0.1720770229E-15 -0.4458006571E+01  0.6128613387E+15  0.7207220601E+01  0.1720374328E-15 -0.4465421429E+01
  0.1342953697E+01  0.1000000000E+01  0.4000000000E+00  0.5737644095E+01  0.1478646732E-15 -0.3135581268E+01  0.6128613387E+15  0.5750550224E+01  0.1483202408E-15 -0.3153182305E+01
  0.1246988935E+01  0.1000000000E+01  0.4000000000E+00  0.4753178896E+01  0.5417586787E-16 -0.3253054267E+01  0.6128613387E+15  0.4769234535E+01  0.5421901226E-16 -0.3277313760E+01
  0.1200000000E+01  0.1000000000E+01  0.4000000000E+00  0.4192351715E+01  0.2668640309E-16 -0.2871692753E+01  0.6128613387E+15  0.4214898835E+01  0.2667947467E-16 -0.2900420113E+01
ZONE I=6, J=6, K=1, F=POINT
  0.2000000000E+01  0.1000000000E+01  0.0000000000E+00  0.2402457378E+01  0.7388049874E-19  0.2123409252E+02  0.6128613387E+15  0.2430395096E+01  0.9458347760E-19  0.2215528473E+02
  0.1953011065E+01  0.1000000000E+01  0.0000000000E+00  0.1291831852E+01 -0.3737740137E-16 -0.1372280686E+00  0.6128613387E+15  0.1295987699E+01 -0.3611626600E-16 -0.1503284279E+00
  0.1857046303E+01  0.1000000000E+01  0.0000000000E+00 -0.3064532431E+00 -0.1880553149E-16  0.1518727963E+00  0.6128613387E+15 -0.3069900103E+00 -0.1928746061E-16  0.1504012566E+00
  0.1742953697E+01  0.1000000000E+01  0.0000000000E+00  0.1348974057E+00  0.2342775726E-18 -0.3755533997E-01  0.6128613387E+15  0.1356287569E+00  0.1323697960E-18 -0.3719141218E-01
  0.1646988935E+01  0.1000000000E+01  0.0000000000E+00 -0.1265175273E+00  0.3432615796E-18  0.6074518386E-01  0.6128613387E+15 -0.1261993471E+00  0.3080074412E-18  0.5967602298E-01
  0.1600000000E+01  0.1000000000E+01  0.0000000000E+00  0.8900308045E-01 -0.9680927444E-18 -0.8448247788E-01  0.6128613387E+15  0.8839673229E-01 -0.1093379973E-17 -0.8318191459E-01
  0.2000000000E+01  0.1000000000E+01  0.4698893521E-01 -0.1160078229E-01  0.7440670897E-18  0.4848305196E+02  0.6128613387E+15 -0.5417650052E-01  0.6864977611E-18  0.4865814515E+02
  0.1953011065E+01  0.1000000000E+01  0.4698893521E-01  0.1097040404E+02  0.1389974354E-15  0.1474469711E+01  0.6128613387E+15  0.1095968981E+02  0.1377830618E-15  0.1493842321E+01
  0.1857046303E+01  0.1000000000E+01  0.4698893521E-01  0.1171091506E+02  0.2969669570E-15 -0.1877720620E+01  0.6128613387E+15  0.1171469140E+02  0.2973675267E-15 -0.1872229344E+01
  0.1742953697E+01  0.1000000000E+01  0.4698893521E-01  0.5830314696E+01 -0.3240539726E-16 -0.6656202644E+00  0.6128613387E+15  0.5836870242E+01 -0.3207649524E-16 -0.6657339426E+00
  0.1646988935E+01  0.1000000000E+01  0.4698893521E-01  0.4455847949E+01 -0.1210404351E-15 -0.6555247849E+00  0.6128613387E+15  0.4457298833E+01 -0.1213115760E-15 -0.6542068409E+00
  0.1600000000E+01  0.1000000000E+01  0.4698893521E-01  0.2803237234E+01 -0.8674013140E-16  0.1863436954E+00  0.6128613387E+15  0.2811538041E+01 -0.8653010508E-16  0.1816338279E+00
  0.2000000000E+01  0.1000000000E+01  0.1429536967E+00 -0.2813289248E+00  0.2708607693E-17  0.5050373108E+02  0.6128613387E+15 -0.2567820878E+00  0.2731482607E-17  0.5044067591E+02
  0.1953011065E+01  0.1000000000E+01  0.1429536967E+00  0.2809592974E+01 -0.5134022668E-15  0.1646235278E+02  0.6128613387E+15  0.2794965746E+01 -0.5133877568E-15  0.1650191149E+02
  0.1857046303E+01  0.1000000000E+01  0.1429536967E+00  0.1278338189E+02 -0.2535304253E-15 -0.3568708409E+01  0.6128613387E+15  0.1278248915E+02 -0.2537281012E-15 -0.3556968098E+01
  0.1742953697E+01  0.1000000000E+01  0.1429536967E+00  0.9962279838E+01 -0.5686963432E-17 -0.4198059446E+01  0.6128613387E+15  0.9970255288E+01 -0.5474476489E-17 -0.4195334010E+01
  0.1646988935E+01  0.1000000000E+01  0.1429536967E+00  0.9142129305E+01 -0.1572048191E-15 -0.2227497772E+01  0.6128613387E+15  0.9144839408E+01 -0.1569421461E-15 -0.2223341262E+01
  0.1600000000E+01  0.1000000000E+01  0.1429536967E+00  0.5706450518E+01 -0.2841665886E-15 -0.1964164987E+01  0.6128613387E+15  0.5727720366E+01 -0.2846899343E-15 -0.1965232385E+01
  0.2000000000E+01  0.1000000000E+01  0.2570463033E+00  0.1905081259E-01  0.1091978081E-17  0.4987328901E+02  0.6128613387E+15  0.1823037489E-01  0.1045625794E-17  0.4987828242E+02