TITLE = "Generated from ../MESH/Convergence_0000000000.hmesh and Convergence_0000000500.hsol"
VARIABLES = "x","y","z","veloT_x","veloT_y","veloT_z","slr_4","velo_x","velo_y","velo_z"
ZONE I=6, J=6, K=1, F=POINT
  0.4000000000E+00  0.1000000000E+01  0.0000000000E+00 -0.1896856470E-01  0.3083499425E-19  0.6029362953E-02  0.6556577130E+15 -0.1625040544E-01  0.2994590089E-19  0.6090172843E-02
  0.3530110648E+00  0.1000000000E+01  0.0000000000E+00 -0.8466860386E-02  0.1017973186E-19 -0.6503850396E-03  0.6556577130E+15 -0.6063360702E-02  0.7916356642E-20 -0.7292377738E-03
  0.2570463033E+00  0.1000000000E+01  0.0000000000E+00 -0.6655480769E-02  0.5579308389E-21  0.2258018738E-02  0.6556577130E+15 -0.4927535121E-02 -0.2038573358E-21  0.2104393657E-02
  0.1429536967E+00  0.1000000000E+01  0.0000000000E+00 -0.9059748921E-02 -0.6359165314E-22 -0.9575243327E-03  0.6556577130E+15 -0.8354659552E-02 -0.1377605626E-21 -0.1244066296E-02
  0.4698893521E-01  0.1000000000E+01  0.0000000000E+00 -0.4971758752E-02 -0.2196967533E-20  0.2900072927E-02  0.6556577130E+15 -0.5207271612E-02 -0.3286910064E-20  0.3354866770E-02
  0.0000000000E+00  0.1000000000E+01  0.0000000000E+00 -0.9267932578E-02  0.1175532805E-22  0.3316195541E-02  0.6556577130E+15 -0.9594762089E-02  0.1894285722E-22  0.3653755747E-02
  0.4000000000E+00  0.1000000000E+01  0.4698893521E-01  0.1797932445E+00  0.1066319312E-17 -0.9297018233E-02  0.6556577130E+15  0.1753135045E+00  0.1097523564E-17 -0.8263347692E-02
  0.3530110648E+00  0.1000000000E+01  0.4698893521E-01  0.1128817104E-01  0.9533352946E-18  0.3402727548E-01  0.6556577130E+15  0.3141283777E-02  0.1040763718E-17  0.3698120311E-01
  0.2570463033E+00  0.1000000000E+01  0.4698893521E-01 -0.7080360864E-02  0.1474968806E-18  0.2703538664E-01  0.6556577130E+15 -0.1583525616E-01  0.1670033177E-18  0.3211726716E-01
  0.1429536967E+00  0.1000000000E+01  0.4698893521E-01 -0.5749787961E-01 -0.9632912778E-19  0.2167270668E-01  0.6556577130E+15 -0.7320377806E-01 -0.1328646884E-18  0.3241978836E-01
  0.4698893521E-01  0.1000000000E+01  0.4698893521E-01 -0.1490701982E-01 -0.5988301457E-19  0.5027621323E-02  0.6556577130E+15 -0.3039582890E-01 -0.8130965583E-19  0.1987832992E-01
  0.0000000000E+00  0.1000000000E+01  0.4698893521E-01 -0.2200530428E-01  0.6870145177E-21  0.9612618208E-02  0.6556577130E+15 -0.2248118995E-01  0.7247238347E-21  0.9802061985E-02
  0.4000000000E+00  0.1000000000E+01  0.1429536967E+00  0.3259167492E+00  0.6198055379E-17 -0.1148764680E+00  0.6556577130E+15  0.3159397460E+00  0.6058529898E-17 -0.9380139424E-01
  0.3530110648E+00  0.1000000000E+01  0.1429536967E+00  0.5679572517E-01  0.2337682057E-17 -0.1419394156E+00  0.6556577130E+15  0.4942912571E-01  0.2216902571E-17 -0.1215020721E+00
  0.2570463033E+00  0.1000000000E+01  0.1429536967E+00  0.3876182278E-01  0.2428638269E-18 -0.3835924408E-01  0.6556577130E+15  0.2797683156E-01  0.2518549128E-18 -0.2047951167E-01
  0.1429536967E+00  0.1000000000E+01  0.1429536967E+00 -0.5491525990E-01 -0.4729355441E-19 -0.1962415507E-01  0.6556577130E+15 -0.7416869779E-01 -0.3571225008E-19 -0.3002680965E-03
  0.4698893521E-01  0.1000000000E+01  0.1429536967E+00 -0.3213716537E-01 -0.7552516300E-19  0.5179669426E-01  0.6556577130E+15 -0.4493516660E-01 -0.1507449733E-18  0.6786030488E-01
  0.0000000000E+00  0.1000000000E+01  0.1429536967E+00 -0.2413728311E-01 -0.7448124592E-21  0.6932419881E-02  0.6556577130E+15 -0.2384178868E-01 -0.2934713079E-21  0.6338895722E-02
  0.4000000000E+00  0.1000000000E+01  0.2570463033E+00  0.3003033413E+00  0.2422696277E-18 -0.2752625803E+00  0.6556577130E+15  0.2913315003E+00  0.2403052709E-18 -0.2617043243E+00
  0.3530110648E+00  0.1000000000E+01  0.2570463033E+00  0.1803157188E+00 -0.6288689908E-18 -0.3061188438E+00  0.6556577130E+15  0.1772667736E+00 -0.4575758363E-18 -0.2939139147E+00
  0.2570463033E+00  0.1000000000E+01  0.2570463033E+00  0.1651160680E+00 -0.2450113905E-18 -0.1252965274E+00  0.6556577130E+15  0.1544963157E+00 -0.2502038646E-18 -0.1128408987E+00
  0.1429536967E+00  0.1000000000E+01  0.2570463033E+00  0.4727657242E-01  0.1967393947E-18 -0.8273842542E-01  0.6556577130E+15  0.2998747990E-01  0.1937638625E-18 -0.7044675656E-01
  0.4698893521E-01  0.1000000000E+01  0.2570463033E+00 -0.2134311669E-01  0.6825812387E-18  0.6094461628E-01  0.6556577130E+15 -0.2870179048E-01  0.8177924120E-18  0.7125665102E-01
  0.0000000000E+00  0.1000000000E+01  0.2570463033E+00 -0.1663790132E-01 -0.5037298622E-20  0.5755068166E-02  0.6556577130E+15 -0.1653811023E-01 -0.5845067831E-20  0.4679931253E-02
  0.4000000000E+00  0.1000000000E+01  0.3530110648E+00  0.3024994223E+00  0.2940938717E-19 -0.2963279641E+00  0.6556577130E+15  0.2980338001E+00  0.2842713162E-19 -0.2971088521E+00
  0.3530110648E+00  0.1000000000E+01  0.3530110648E+00  0.2204829214E+00 -0.3193941528E-18 -0.3136098133E+00  0.6556577130E+15  0.2153716766E+00 -0.3214835060E-18 -0.3137642167E+00
  0.2570463033E+00  0.1000000000E+01  0.3530110648E+00  0.2365957715E+00 -0.1597882002E-17 -0.1604328459E+00  0.6556577130E+15  0.2223777926E+00 -0.1669923400E-17 -0.1554761715E+00
  0.1429536967E+00  0.1000000000E+01  0.3530110648E+00  0.9867095627E-01 -0.3001573719E-18 -0.1462621109E+00  0.6556577130E+15  0.8023778325E-01 -0.3823737369E-18 -0.1369575527E+00
  0.4698893521E-01  0.1000000000E+01  0.3530110648E+00 -0.9403092390E-02 -0.3445035095E-18  0.1854101667E-02  0.6556577130E+15 -0.1739096558E-01 -0.4445374630E-18  0.1306816375E-01
  0.0000000000E+00  0.1000000000E+01  0.3530110648E+00 -0.1589611376E-01  0.5880535802E-20  0.6041007492E-02  0.6556577130E+15 -0.1581597878E-01  0.6809656077E-20  0.4955597691E-02
  0.4000000000E+00  0.1000000000E+01  0.4000000000E+00  0.2804930449E+00  0.6408106511E-18 -0.3209174145E+00  0.6556577130E+15  0.2760767996E+00  0.6433928867E-18 -0.3054088257E+00
  0.3530110648E+00  0.1000000000E+01  0.4000000000E+00  0.2564401179E+00 -0.1246323704E-18 -0.3387584995E+00  0.6556577130E+15  0.2505435003E+00 -0.1834529365E-18 -0.3231661397E+00
  0.2570463033E+00  0.1000000000E+01  0.4000000000E+00  0.2565601717E+00 -0.2634109964E-17 -0.2049908899E+00  0.6556577130E+15  0.2404605601E+00 -0.2528753758E-17 -0.1902301953E+00
  0.1429536967E+00  0.1000000000E+01  0.4000000000E+00  0.1219222195E+00 -0.7857345886E-18 -0.2086098053E+00  0.6556577130E+15  0.1030291115E+00 -0.6742906294E-18 -0.1933135132E+00
  0.4698893521E-01  0.1000000000E+01  0.4000000000E+00 -0.8283558385E-02 -0.8422012126E-18 -0.3766029519E-01  0.6556577130E+15 -0.1521546261E-01 -0.8715523056E-18 -0.2750319109E-01
  0.0000000000E+00  0.1000000000E+01  0.4000000000E+00 -0.7873391053E-02  0.1154519504E-19  0.3137263092E-02  0.6556577130E+15 -0.7844909551E-02  0.1204860080E-19  0.2320667681E-02
ZONE I=6, J=6, K=1, F=POINT
  0.8000000000E+00  0.1000000000E+01  0.0000000000E+00  0.1554697051E-01 -0.3989458370E-19 -0.1125779273E-01  0.6556577130E+15  0.2084742491E-01 -0.4267919342E-19 -0.1149397797E-01
  0.7530110648E+00  0.1000000000E+01  0.0000000000E+00 -0.1898378240E-02  0.6818380642E-19  0.5717939902E-02  0.6556577130E+15  0.3082183058E-02  0.1771954853E-18  0.5494233526E-02
  0.6570463033E+00  0.1000000000E+01  0.0000000000E+00 -0.4996650274E-02 -0.4213246488E-19  0.5237314984E-04  0.6556577130E+15 -0.4537481508E-03  0.1947623568E-19 -0.1403895176E-03
  0.5429536967E+00  0.1000000000E+01  0.0000000000E+00 -0.4555856195E-02 -0.1173661782E-18  0.6313478081E-02  0.6556577130E+15 -0.4743817281E-03 -0.9812999213E-20  0.6113804841E-02
  0.4469889352E+00  0.1000000000E+01  0.0000000000E+00 -0.7865724524E-02 -0.2180337505E-18  0.2198857344E-03  0.6556577130E+15 -0.4234181900E-02 -0.1074887605E-18  0.9708644944E-04
  0.4000000000E+00  0.1000000000E+01  0.0000000000E+00  0.1021913269E-01  0.3538544554E-19  0.5651793334E-02  0.6556577130E+15  0.1349908627E-01  0.3449890684E-19  0.5689052926E-02
  0.8000000000E+00  0.1000000000E+01  0.4698893521E-01  0.3588930891E+00 -0.2727280046E-16  0.5752069421E-01  0.6556577130E+15  0.3662562392E+00 -0.2735390806E-16  0.5589892045E-01
  0.7530110648E+00  0.1000000000E+01  0.4698893521E-01  0.5991591050E+00 -0.2853967768E-16 -0.8493094272E-02  0.6556577130E+15  0.6049779601E+00 -0.2888895074E-16 -0.8887496177E-02
  0.6570463033E+00  0.1000000000E+01  0.4698893521E-01  0.3312144923E+00 -0.6049499815E-17  0.1717868777E-01  0.6556577130E+15  0.3351720428E+00 -0.5995427429E-17  0.2121821811E-01
  0.5429536967E+00  0.1000000000E+01  0.4698893521E-01  0.3130034705E+00  0.4925321162E-17  0.2874811707E-01  0.6556577130E+15  0.3157474768E+00  0.4973709166E-17  0.3302193506E-01
  0.4469889352E+00  0.1000000000E+01  0.4698893521E-01  0.1219834748E+00  0.2492183799E-17  0.3747390267E-01  0.6556577130E+15  0.1220561391E+00  0.2495402149E-17  0.3809265423E-01
  0.4000000000E+00  0.1000000000E+01  0.4698893521E-01  0.2293128047E+00  0.7845932602E-18 -0.1010979785E-01  0.6556577130E+15  0.2253823638E+00  0.8126492955E-18 -0.9057395323E-02
  0.8000000000E+00  0.1000000000E+01  0.1429536967E+00  0.5824791266E+00 -0.4713438982E-16 -0.2484937612E+00  0.6556577130E+15  0.5874140251E+00 -0.4701710850E-16 -0.2334492475E+00
  0.7530110648E+00  0.1000000000E+01  0.1429536967E+00  0.9848972057E+00 -0.3087973972E-16 -0.1440889806E+00  0.6556577130E+15  0.9873562356E+00 -0.3102821516E-16 -0.1274530599E+00
  0.6570463033E+00  0.1000000000E+01  0.1429536967E+00  0.5895317741E+00 -0.9175012786E-17 -0.2127260530E+00  0.6556577130E+15  0.5908379023E+00 -0.9198687790E-17 -0.1934131729E+00
  0.5429536967E+00  0.1000000000E+01  0.1429536967E+00  0.5453778182E+00  0.8817937175E-17 -0.8713781171E-01  0.6556577130E+15  0.5506072444E+00  0.8972285941E-17 -0.6705224936E-01
  0.4469889352E+00  0.1000000000E+01  0.1429536967E+00  0.2374732183E+00  0.6533168321E-17 -0.1583069723E+00  0.6556577130E+15  0.2383911989E+00  0.6442540084E-17 -0.1385530101E+00
  0.4000000000E+00  0.1000000000E+01  0.1429536967E+00  0.3839302910E+00  0.7028545097E-17 -0.1143092393E+00  0.6556577130E+15  0.3741873019E+00  0.6892963132E-17 -0.9321738199E-01
  0.8000000000E+00  0.1000000000E+01  0.2570463033E+00  0.6699712549E+00 -0.1816015270E-18 -0.5226337556E+00  0.6556577130E+15  0.6728812009E+00 -0.2072853769E-18 -0.5120288955E+00
  0.7530110648E+00  0.1000000000E+01  0.2570463033E+00  0.7319916836E+00 -0.1979907429E-17 -0.3600554037E+00  0.6556577130E+15  0.7317010346E+00 -0.1818082417E-17 -0.3480150138E+00
  0.6570463033E+00  0.1000000000E+01  0.2570463033E+00  0.5148604596E+00 -0.8758853546E-17 -0.4569549673E+00  0.6556577130E+15  0.5150822644E+00 -0.8739039849E-17 -0.4419065998E+00
  0.5429536967E+00  0.1000000000E+01  0.2570463033E+00  0.4378999517E+00 -0.6324040647E-18 -0.2633091982E+00  0.6556577130E+15  0.4430556507E+00 -0.5607514576E-18 -0.2473762718E+00
  0.4469889352E+00  0.1000000000E+01  0.2570463033E+00  0.2864045137E+00  0.4278678659E-18 -0.3542227790E+00  0.6556577130E+15  0.2867080264E+00  0.6190196362E-18 -0.3391433693E+00
  0.4000000000E+00  0.1000000000E+01  0.2570463033E+00  0.3367878646E+00  0.2876632083E-18 -0.2746071517E+00  0.6556577130E+15  0.3273848850E+00  0.2847586001E-18 -0.2610655816E+00
  0.8000000000E+00  0.1000000000E+01  0.3530110648E+00  0.3676679292E+00  0.9627345596E-17 -0.6124142728E+00  0.6556577130E+15  0.3703333064E+00  0.9593682173E-17 -0.6146306268E+00
  0.7530110648E+00  0.1000000000E+01  0.3530110648E+00  0.4840270604E+00  0.1272963262E-16 -0.4982520127E+00  0.6556577130E+15  0.4801592885E+00  0.1244550743E-16 -0.4998589303E+00
  0.6570463033E+00  0.1000000000E+01  0.3530110648E+00  0.3501219434E+00 -0.4695454121E-17 -0.5119721054E+00  0.6556577130E+15  0.3472041567E+00 -0.4597884105E-17 -0.5097748622E+00
  0.5429536967E+00  0.1000000000E+01  0.3530110648E+00  0.3484482955E+00 -0.8722000811E-17 -0.3112974211E+00  0.6556577130E+15  0.3547787052E+00 -0.9110707031E-17 -0.3070231263E+00
  0.4469889352E+00  0.1000000000E+01  0.3530110648E+00  0.2386237232E+00 -0.9975145439E-18 -0.3593180982E+00  0.6556577130E+15  0.2427899339E+00 -0.9998545156E-18 -0.3580874206E+00
  0.4000000000E+00  0.1000000000E+01  0.3530110648E+00  0.3396514897E+00 -0.3697161199E-21 -0.2961040498E+00  0.6556577130E+15  0.3348590596E+00 -0.2195753525E-20 -0.2968913267E+00
  0.8000000000E+00  0.1000000000E+01  0.4000000000E+00  0.3154169657E+00 -0.4521807783E-17 -0.6933248385E+00  0.6556577130E+15  0.3184132832E+00 -0.4526457663E-17 -0.6832839912E+00
  0.7530110648E+00  0.1000000000E+01  0.4000000000E+00  0.3184722043E+00 -0.8577362236E-18 -0.5315926132E+00  0.6556577130E+15  0.3144977039E+00 -0.9851849834E-18 -0.5218237782E+00
  0.6570463033E+00  0.1000000000E+01  0.4000000000E+00  0.2658857106E+00 -0.3074090717E-17 -0.5419887273E+00  0.6556577130E+15  0.2617521769E+00 -0.3020710138E-17 -0.5339984507E+00
  0.5429536967E+00  0.1000000000E+01  0.4000000000E+00  0.2817324432E+00  0.1071191899E-17 -0.3770583680E+00  0.6556577130E+15  0.2875291917E+00  0.1235951199E-17 -0.3657466977E+00
  0.4469889352E+00  0.1000000000E+01  0.4000000000E+00  0.2715993355E+00  0.1396498858E-17 -0.3908849082E+00  0.6556577130E+15  0.2765026922E+00  0.1469089536E-17 -0.3768448196E+00
  0.4000000000E+00  0.1000000000E+01  0.4000000000E+00  0.2966677352E+00  0.6614935591E-18 -0.3202326673E+00  0.6556577130E+15  0.2916390295E+00  0.6635053832E-18 -0.3047528623E+00
ZONE I=6, J=6, K=1, F=POINT
  0.1200000000E+01  0.1000000000E+01  0.0000000000E+00 -0.3695763350E-01  0.1140110069E-18  0.3593960246E-01  0.6556577130E+15 -0.3203769123E-01  0.1190423559E-18  0.3626613215E-01
  0.1153011065E+01  0.1000000000E+01  0.0000000000E+00 -0.7925533737E-02 -0.2335633497E-18 -0.9047845220E-02  0.6556577130E+15 -0.2405284050E-02  0.1532422731E-19 -0.8993292226E-02
  0.1057046303E+01  0.1000000000E+01  0.0000000000E+00 -0.9151436581E-03 -0.1564716205E-19  0.6156877851E-02  0.6556577130E+15  0.4834005350E-02  0.1332081241E-18  0.6152488862E-02
  0.9429536967E+00  0.1000000000E+01  0.0000000000E+00 -0.6188995862E-02  0.5585270901E-19 -0.7769457675E-02  0.6556577130E+15 -0.3884449904E-03  0.5708985132E-19 -0.7804790014E-02
  0.8469889352E+00  0.1000000000E+01  0.0000000000E+00 -0.9152842870E-03  0.3367702382E-19  0.5230449301E-02  0.6556577130E+15  0.4768984823E-02  0.3312124801E-19  0.5078892212E-02
  0.8000000000E+00  0.1000000000E+01  0.0000000000E+00 -0.3368221307E-01 -0.5058922850E-19 -0.1044240343E-01  0.6556577130E+15 -0.2833271886E-01 -0.5331084909E-19 -0.1066832610E-01
  0.1200000000E+01  0.1000000000E+01  0.4698893521E-01  0.1747880030E+01 -0.4363777580E-16 -0.1778121813E+00  0.6556577130E+15  0.1760009356E+01 -0.4416186544E-16 -0.1845083088E+00
  0.1153011065E+01  0.1000000000E+01  0.4698893521E-01  0.1056585858E+01 -0.1838565338E-16 -0.1741347889E-01  0.6556577130E+15  0.1068792972E+01 -0.1878930359E-16 -0.2341125504E-01
  0.1057046303E+01  0.1000000000E+01  0.4698893521E-01  0.1136015147E+01  0.9620008560E-19 -0.3934974120E-01  0.6556577130E+15  0.1147119119E+01  0.2000867702E-18 -0.4466175292E-01
  0.9429536967E+00  0.1000000000E+01  0.4698893521E-01  0.6842373169E+00 -0.1255556035E-16 -0.2363411226E-01  0.6556577130E+15  0.6939236274E+00 -0.1282585945E-16 -0.2702087572E-01
  0.8469889352E+00  0.1000000000E+01  0.4698893521E-01  0.7095821102E+00 -0.3186770340E-16 -0.2784178901E-01  0.6556577130E+15  0.7179660659E+00 -0.3225167103E-16 -0.3055214507E-01
  0.8000000000E+00  0.1000000000E+01  0.4698893521E-01  0.2877426080E+00 -0.2647009278E-16  0.5968865751E-01  0.6556577130E+15  0.2952678240E+00 -0.2656124343E-16  0.5802586654E-01
  0.1200000000E+01  0.1000000000E+01  0.1429536967E+00  0.3143047290E+01 -0.5645472189E-16 -0.2457389991E+00  0.6556577130E+15  0.3155375540E+01 -0.5670136287E-16 -0.2482456203E+00
  0.1153011065E+01  0.1000000000E+01  0.1429536967E+00  0.1828842107E+01 -0.5231029291E-16 -0.4507129221E+00  0.6556577130E+15  0.1839944115E+01 -0.5185791384E-16 -0.4511539641E+00
  0.1057046303E+01  0.1000000000E+01  0.1429536967E+00  0.1922400415E+01 -0.1776004826E-16 -0.2249798442E+00  0.6556577130E+15  0.1931325632E+01 -0.1782859869E-16 -0.2208259846E+00
  0.9429536967E+00  0.1000000000E+01  0.1429536967E+00  0.1119452993E+01 -0.2215753540E-16 -0.4212453597E+00  0.6556577130E+15  0.1127120025E+01 -0.2217006578E-16 -0.4120649204E+00
  0.8469889352E+00  0.1000000000E+01  0.1429536967E+00  0.1154673414E+01 -0.4182783816E-16 -0.1983803914E+00  0.6556577130E+15  0.1161115758E+01 -0.4206735803E-16 -0.1851378374E+00
  0.8000000000E+00  0.1000000000E+01  0.1429536967E+00  0.4903718129E+00 -0.4957851921E-16 -0.2501190352E+00  0.6556577130E+15  0.4956857959E+00 -0.4949974705E-16 -0.2350661442E+00
  0.1200000000E+01  0.1000000000E+01  0.2570463033E+00  0.1917799830E+01 -0.2751122277E-16 -0.7015277590E+00  0.6556577130E+15  0.1925685526E+01 -0.2742968819E-16 -0.6866145403E+00
  0.1153011065E+01  0.1000000000E+01  0.2570463033E+00  0.1608540523E+01 -0.6081954887E-16 -0.9615548520E+00  0.6556577130E+15  0.1616659007E+01 -0.6120625165E-16 -0.9470731005E+00
  0.1057046303E+01  0.1000000000E+01  0.2570463033E+00  0.1354669320E+01 -0.3193417381E-16 -0.5851311301E+00  0.6556577130E+15  0.1362013224E+01 -0.3195006096E-16 -0.5723117635E+00
  0.9429536967E+00  0.1000000000E+01  0.2570463033E+00  0.9725510905E+00 -0.2878322841E-16 -0.8315919664E+00  0.6556577130E+15  0.9783818463E+00 -0.2902319779E-16 -0.8210894756E+00
  0.8469889352E+00  0.1000000000E+01  0.2570463033E+00  0.8760590300E+00 -0.1361664708E-17 -0.4640258557E+00  0.6556577130E+15  0.8804507458E+00 -0.1144564752E-17 -0.4538265796E+00
  0.8000000000E+00  0.1000000000E+01  0.2570463033E+00  0.6245636736E+00 -0.4036358429E-18 -0.5247185564E+00  0.6556577130E+15  0.6280399709E+00 -0.4192042450E-18 -0.5140175272E+00
  0.1200000000E+01  0.1000000000E+01  0.3530110648E+00  0.1565261686E+01 -0.6877464924E-17 -0.1256818166E+01  0.6556577130E+15  0.1572834843E+01 -0.6847536893E-17 -0.1238974574E+01
  0.1153011065E+01  0.1000000000E+01  0.3530110648E+00  0.1097276095E+01 -0.1956443131E-16 -0.1211850854E+01  0.6556577130E+15  0.1109347666E+01 -0.1968010413E-16 -0.1195312354E+01
  0.1057046303E+01  0.1000000000E+01  0.3530110648E+00  0.9204705522E+00 -0.1693898579E-16 -0.9003526577E+00  0.6556577130E+15  0.9335834486E+00 -0.1713523270E-16 -0.8902629796E+00
  0.9429536967E+00  0.1000000000E+01  0.3530110648E+00  0.5685306456E+00 -0.1838553215E-16 -0.9416452894E+00  0.6556577130E+15  0.5787522547E+00 -0.1870529401E-16 -0.9397295816E+00
  0.8469889352E+00  0.1000000000E+01  0.3530110648E+00  0.5817999118E+00  0.4169324453E-17 -0.6432991969E+00  0.6556577130E+15  0.5880942976E+00  0.4313602441E-17 -0.6450833886E+00
  0.8000000000E+00  0.1000000000E+01  0.3530110648E+00  0.3160672899E+00  0.9675240069E-17 -0.6126169568E+00  0.6556577130E+15  0.3194264996E+00  0.9642148412E-17 -0.6149103451E+00
  0.1200000000E+01  0.1000000000E+01  0.4000000000E+00  0.1147028770E+01 -0.1069347599E-16 -0.1279510837E+01  0.6556577130E+15  0.1154964774E+01 -0.1067087384E-16 -0.1270349088E+01
  0.1153011065E+01  0.1000000000E+01  0.4000000000E+00  0.1025694295E+01 -0.8990389414E-17 -0.1422521483E+01  0.6556577130E+15  0.1038328139E+01 -0.9024253388E-17 -0.1412455566E+01
  0.1057046303E+01  0.1000000000E+01  0.4000000000E+00  0.6970447350E+00 -0.1083569823E-16 -0.1024268446E+01  0.6556577130E+15  0.7128242679E+00 -0.1075260003E-16 -0.1013616366E+01
  0.9429536967E+00  0.1000000000E+01  0.4000000000E+00  0.4589440595E+00 -0.2060727711E-16 -0.1052969558E+01  0.6556577130E+15  0.4709152360E+00 -0.2089401961E-16 -0.1044261796E+01
  0.8469889352E+00  0.1000000000E+01  0.4000000000E+00  0.3713200359E+00 -0.1136776506E-16 -0.6929543430E+00  0.6556577130E+15  0.3779636406E+00 -0.1130502733E-16 -0.6829901361E+00
  0.8000000000E+00  0.1000000000E+01  0.4000000000E+00  0.3060400609E+00 -0.4508765984E-17 -0.6959794943E+00  0.6556577130E+15  0.3097054918E+00 -0.4514248001E-17 -0.6859028341E+00
ZONE I=6, J=6, K=1, F=POINT
  0.1600000000E+01  0.1000000000E+01  0.0000000000E+00  0.1356254018E+00 -0.8774864456E-18 -0.7281599421E-01  0.6556577130E+15  0.1375846494E+00 -0.9651563081E-18 -0.7260766928E-01
  0.1553011065E+01  0.1000000000E+01  0.0000000000E+00  0.1050483510E-01 -0.1554636340E-17  0.4551940445E-01  0.6556577130E+15  0.1246284984E-01 -0.1676869809E-17  0.4557337688E-01
  0.1457046303E+01  0.1000000000E+01  0.0000000000E+00 -0.8512197770E-02 -0.2674503197E-19 -0.2861835211E-02  0.6556577130E+15 -0.5612091346E-02 -0.1036645209E-18 -0.2644620163E-02
  0.1342953697E+01  0.1000000000E+01  0.0000000000E+00  0.4034306236E-02  0.4194189113E-18  0.3004717336E-01  0.6556577130E+15  0.7746036460E-02  0.6277389115E-18  0.3013624576E-01
  0.1246988935E+01  0.1000000000E+01  0.0000000000E+00 -0.9929064828E-02  0.9246314022E-19 -0.7521045602E-02  0.6556577130E+15 -0.5712369909E-02  0.1122673873E-18 -0.7329902334E-02
  0.1200000000E+01  0.1000000000E+01  0.0000000000E+00  0.5964173999E-01  0.1200059553E-18  0.3542202051E-01  0.6556577130E+15  0.6440609283E-01  0.1264176172E-18  0.3577242371E-01
  0.1600000000E+01  0.1000000000E+01  0.4698893521E-01  0.2217089026E+01 -0.6928206465E-16  0.2006044724E+00  0.6556577130E+15  0.2224536363E+01 -0.6951287602E-16  0.1903702364E+00
  0.1553011065E+01  0.1000000000E+01  0.4698893521E-01  0.2863550345E+01 -0.2203378607E-16 -0.3159254579E+00  0.6556577130E+15  0.2871849460E+01 -0.2184987313E-16 -0.3267544493E+00
  0.1457046303E+01  0.1000000000E+01  0.4698893521E-01  0.1831067184E+01 -0.3961448098E-17 -0.1214654283E+00  0.6556577130E+15  0.1841284121E+01 -0.4266459131E-17 -0.1331325597E+00
  0.1342953697E+01  0.1000000000E+01  0.4698893521E-01  0.1882917442E+01  0.2943868574E-16 -0.7985080180E-01  0.6556577130E+15  0.1892939569E+01  0.2953075857E-16 -0.9102303594E-01
  0.1246988935E+01  0.1000000000E+01  0.4698893521E-01  0.1325310542E+01 -0.6589288952E-17 -0.1047478597E-01  0.6556577130E+15  0.1335323289E+01 -0.6168350802E-17 -0.1856493640E-01
  0.1200000000E+01  0.1000000000E+01  0.4698893521E-01  0.1863633536E+01 -0.4860423347E-16 -0.1836669671E+00  0.6556577130E+15  0.1873586688E+01 -0.4908520096E-16 -0.1900643772E+00
  0.1600000000E+01  0.1000000000E+01  0.1429536967E+00  0.2807341943E+01 -0.2425284993E-15 -0.1679388947E+01  0.6556577130E+15  0.2810120460E+01 -0.2420821732E-15 -0.1682822893E+01
  0.1553011065E+01  0.1000000000E+01  0.1429536967E+00  0.4792228434E+01 -0.1496866446E-15 -0.7773308252E+00  0.6556577130E+15  0.4805075908E+01 -0.1501268615E-15 -0.7817288612E+00
  0.1457046303E+01  0.1000000000E+01  0.1429536967E+00  0.2991243487E+01  0.3977718231E-16 -0.8228323900E+00  0.6556577130E+15  0.3005193873E+01  0.4032002359E-16 -0.8289135919E+00
  0.1342953697E+01  0.1000000000E+01  0.1429536967E+00  0.3345677282E+01  0.1049166367E-15 -0.3900209752E-01  0.6556577130E+15  0.3355607925E+01  0.1052603526E-15 -0.4417145090E-01
  0.1246988935E+01  0.1000000000E+01  0.1429536967E+00  0.2300736108E+01  0.2171829540E-16 -0.4252391868E+00  0.6556577130E+15  0.2309410223E+01  0.2135456331E-16 -0.4284328630E+00
  0.1200000000E+01  0.1000000000E+01  0.1429536967E+00  0.3317777990E+01 -0.6092193267E-16 -0.2409251360E+00  0.6556577130E+15  0.3324385617E+01 -0.6109591332E-16 -0.2438021279E+00
  0.1600000000E+01  0.1000000000E+01  0.2570463033E+00  0.5240264359E+01  0.2341782640E-16 -0.3087159623E+01  0.6556577130E+15  0.5255594722E+01  0.2349522828E-16 -0.3081810028E+01
  0.1553011065E+01  0.1000000000E+01  0.2570463033E+00  0.4453955762E+01  0.3886621325E-16 -0.1807839489E+01  0.6556577130E+15  0.4471670329E+01  0.3904513460E-16 -0.1799531011E+01
  0.1457046303E+01  0.1000000000E+01  0.2570463033E+00  0.3600202467E+01  0.1460833122E-15 -0.1726308552E+01  0.6556577130E+15  0.3616108063E+01  0.1467598990E-15 -0.1717705359E+01
  0.1342953697E+01  0.1000000000E+01  0.2570463033E+00  0.2733914217E+01  0.1223736241E-15 -0.4818079600E+00  0.6556577130E+15  0.2743126575E+01  0.1227715530E-15 -0.4711473353E+00
  0.1246988935E+01  0.1000000000E+01  0.2570463033E+00  0.2056816337E+01  0.2762894568E-16 -0.9856237626E+00  0.6556577130E+15  0.2063495993E+01  0.2804976096E-16 -0.9719498205E+00
  0.1200000000E+01  0.1000000000E+01  0.2570463033E+00  0.1969184120E+01 -0.2793807873E-16 -0.6949864305E+00  0.6556577130E+15  0.1976873096E+01 -0.2784614012E-16 -0.6810617977E+00
  0.1600000000E+01  0.1000000000E+01  0.3530110648E+00  0.3223368073E+01  0.4468370253E-16 -0.3376609685E+01  0.6556577130E+15  0.3235892344E+01  0.4475424300E-16 -0.3369458791E+01
  0.1553011065E+01  0.1000000000E+01  0.3530110648E+00  0.3528481973E+01  0.5986420496E-16 -0.2955111585E+01  0.6556577130E+15  0.3544460439E+01  0.6002969715E-16 -0.2947985311E+01
  0.1457046303E+01  0.1000000000E+01  0.3530110648E+00  0.2771817344E+01  0.1031930927E-15 -0.2346219323E+01  0.6556577130E+15  0.2786833433E+01  0.1037686622E-15 -0.2336621469E+01
  0.1342953697E+01  0.1000000000E+01  0.3530110648E+00  0.2263184244E+01  0.9763801785E-16 -0.1389348510E+01  0.6556577130E+15  0.2269025916E+01  0.9768267577E-16 -0.1377022246E+01
  0.1246988935E+01  0.1000000000E+01  0.3530110648E+00  0.1465194286E+01  0.2247773272E-16 -0.1356183382E+01  0.6556577130E+15  0.1466981300E+01  0.2239768071E-16 -0.1339397190E+01
  0.1200000000E+01  0.1000000000E+01  0.3530110648E+00  0.1645473392E+01 -0.6871434050E-17 -0.1257533483E+01  0.6556577130E+15  0.1651254163E+01 -0.6847474975E-17 -0.1239384806E+01
  0.1600000000E+01  0.1000000000E+01  0.4000000000E+00  0.3452497432E+01  0.1774967883E-16 -0.4098241765E+01  0.6556577130E+15  0.3464890469E+01  0.1778465267E-16 -0.4094520103E+01
  0.1553011065E+01  0.1000000000E+01  0.4000000000E+00  0.2867661171E+01  0.4809037111E-16 -0.2853699878E+01  0.6556577130E+15  0.2882907412E+01  0.4794512303E-16 -0.2848550565E+01
  0.1457046303E+01  0.1000000000E+01  0.4000000000E+00  0.2595839666E+01  0.6117635303E-16 -0.2610934730E+01  0.6556577130E+15  0.2609389906E+01  0.6131575044E-16 -0.2602428555E+01
  0.1342953697E+01  0.1000000000E+01  0.4000000000E+00  0.1896738603E+01  0.8412407525E-16 -0.1486781733E+01  0.6556577130E+15  0.1901762666E+01  0.8432971234E-16 -0.1476874523E+01
  0.1246988935E+01  0.1000000000E+01  0.4000000000E+00  0.1440578306E+01  0.1064162515E-16 -0.1618447763E+01  0.6556577130E+15  0.1440677545E+01  0.1065522886E-16 -0.1607490801E+01
  0.1200000000E+01  0.1000000000E+01  0.4000000000E+00  0.1130016040E+01 -0.1045123257E-16 -0.1270988125E+01  0.6556577130E+15  0.1137802088E+01 -0.1043947704E-16 -0.1262517152E+01
ZONE I=6, J=6, K=1, F=POINT
  0.2000000000E+01  0.1000000000E+01  0.0000000000E+00  0.2394649236E+01  0.5081056214E-19  0.2122735038E+02  0.6556577130E+15  0.2421986973E+01  0.8389264110E-19  0.2214892961E+02
  0.1953011065E+01  0.1000000000E+01  0.0000000000E+00  0.1298230563E+01 -0.3628307750E-16 -0.1390967589E+00  0.6556577130E+15  0.1301466332E+01 -0.3540942354E-16 -0.1532543557E+00
  0.1857046303E+01  0.1000000000E+01  0.0000000000E+00 -0.3022729467E+00 -0.1866778581E-16  0.1581236129E+00  0.6556577130E+15 -0.3038907548E+00 -0.1932689824E-16  0.1544192979E+00
  0.1742953697E+01  0.1000000000E+01  0.0000000000E+00  0.1351951969E+00  0.3761014203E-18 -0.3983186260E-01  0.6556577130E+15  0.1371120363E+00  0.3469387947E-18 -0.3909523355E-01
  0.1646988935E+01  0.1000000000E+01  0.0000000000E+00 -0.1245408023E+00  0.6193974743E-18  0.6025375960E-01  0.6556577130E+15 -0.1223050689E+00  0.6034484674E-18  0.5948218543E-01
  0.1600000000E+01  0.1000000000E+01  0.0000000000E+00  0.7908434801E-01 -0.9649172073E-18 -0.8407039032E-01  0.6556577130E+15  0.8132387508E-01 -0.1053801252E-17 -0.8249956943E-01
  0.2000000000E+01  0.1000000000E+01  0.4698893521E-01 -0.3012331627E-01  0.8478195526E-18  0.4848701648E+02  0.6556577130E+15 -0.7382339719E-01  0.7260015918E-18  0.4866057411E+02
  0.1953011065E+01  0.1000000000E+01  0.4698893521E-01  0.1098445695E+02  0.1699176139E-15  0.1504557180E+01  0.6556577130E+15  0.1098009462E+02  0.1689149657E-15  0.1523858880E+01
  0.1857046303E+01  0.1000000000E+01  0.4698893521E-01  0.1132353493E+02  0.3696002831E-15 -0.2027079553E+01  0.6556577130E+15  0.1133752551E+02  0.3703640700E-15 -0.2030067147E+01
  0.1742953697E+01  0.1000000000E+01  0.4698893521E-01  0.4985532360E+01  0.2021099790E-16 -0.6751112347E+00  0.6556577130E+15  0.5000722949E+01  0.2049059118E-16 -0.6884622577E+00
  0.1646988935E+01  0.1000000000E+01  0.4698893521E-01  0.3820210573E+01 -0.1078782438E-15 -0.6650513248E+00  0.6556577130E+15  0.3829805449E+01 -0.1085425865E-15 -0.6743188212E+00
  0.1600000000E+01  0.1000000000E+01  0.4698893521E-01  0.2024918020E+01 -0.6560249054E-16  0.1871929134E+00  0.6556577130E+15  0.2041867499E+01 -0.6563819130E-16  0.1718052562E+00
  0.2000000000E+01  0.1000000000E+01  0.1429536967E+00 -0.2874257112E+00  0.1516274283E-17  0.5050442315E+02  0.6556577130E+15 -0.2684534841E+00  0.1298082129E-17  0.5044179876E+02
  0.1953011065E+01  0.1000000000E+01  0.1429536967E+00  0.2432137124E+01 -0.3926903146E-15  0.1580446930E+02  0.6556577130E+15  0.2437618306E+01 -0.3916943139E-15  0.1584482379E+02
  0.1857046303E+01  0.1000000000E+01  0.1429536967E+00  0.1055179277E+02 -0.2681786360E-15 -0.4921653342E+01  0.6556577130E+15  0.1057276962E+02 -0.2691215172E-15 -0.4914356042E+01
  0.1742953697E+01  0.1000000000E+01  0.1429536967E+00  0.6441858546E+01  0.1306627361E-15 -0.4241743369E+01  0.6556577130E+15  0.6461518509E+01  0.1311879983E-15 -0.4248640902E+01
  0.1646988935E+01  0.1000000000E+01  0.1429536967E+00  0.5867050590E+01 -0.8320640400E-16 -0.1957417513E+01  0.6556577130E+15  0.5881416357E+01 -0.8299860416E-16 -0.1960219446E+01
  0.1600000000E+01  0.1000000000E+01  0.1429536967E+00  0.2429719559E+01 -0.2597220498E-15 -0.1672871903E+01  0.6556577130E+15  0.2458730137E+01 -0.2598310063E-15 -0.1683404587E+01
  0.2000000000E+01  0.1000000000E+01  0.2570463033E+00  0.8739607129E-02  0.8190503262E-18  0.4987051802E+02  0.6556577130E+15  0.8079419387E-02  0.7620662231E-18  0.4987801014E+02