TITLE = "Generated from ../MESH/Convergence_0000000000.hmesh and Convergence_0000009600.hsol"
VARIABLES = "x","y","z","veloT_x","veloT_y","veloT_z","slr_4","velo_x","velo_y","velo_z"
ZONE I=6, J=6, K=1, F=POINT
  0.4000000000E+00  0.1000000000E+01  0.0000000000E+00 -0.2360960555E+00  0.1137385288E-19  0.1179875328E-01  0.2993846381E+16 -0.2966149522E+00 -0.1091199655E-18  0.1395808715E-01
  0.3530110648E+00  0.1000000000E+01  0.0000000000E+00 -0.2453310817E+00  0.7332845086E-19  0.3077811542E-02  0.2993846381E+16 -0.2926307847E+00  0.2314866481E-19  0.5542871160E-02
  0.2570463033E+00  0.1000000000E+01  0.0000000000E+00 -0.2034734977E+00  0.3283895658E-19  0.8744456315E-02  0.2993846381E+16 -0.2322174318E+00  0.1139651608E-19  0.1192599739E-01
  0.1429536967E+00  0.1000000000E+01  0.0000000000E+00 -0.1925216579E+00  0.8728783544E-20  0.8711698999E-04  0.2993846381E+16 -0.2238277714E+00  0.9247913152E-20 -0.4060270946E-02
  0.4698893521E-01  0.1000000000E+01  0.0000000000E+00 -0.1404517917E+00  0.6055119321E-21  0.1513422509E-01  0.2993846381E+16 -0.1759249143E+00 -0.2522522274E-19  0.2959384243E-01
  0.0000000000E+00  0.1000000000E+01  0.0000000000E+00 -0.1956461757E-01  0.9360926847E-24  0.1438345187E-01  0.2993846381E+16 -0.3073592159E-01  0.2952309932E-21  0.2464703943E-01
  0.4000000000E+00  0.1000000000E+01  0.4698893521E-01  0.1337083839E+00  0.4032780663E-17 -0.1161615230E+01  0.2993846381E+16 -0.5490292422E+00  0.7914210408E-17 -0.6981345007E+00
  0.3530110648E+00  0.1000000000E+01  0.4698893521E-01 -0.8283959230E-01  0.6538541314E-17 -0.1003083670E+01  0.2993846381E+16 -0.6970911977E+00  0.1236979379E-16 -0.4723425378E+00
  0.2570463033E+00  0.1000000000E+01  0.4698893521E-01 -0.1192091722E+00  0.6097061959E-18 -0.7335568523E+00  0.2993846381E+16 -0.5774744053E+00  0.1971212579E-17 -0.2165180104E+00
  0.1429536967E+00  0.1000000000E+01  0.4698893521E-01 -0.2233070762E+00 -0.4268100581E-18 -0.3949959073E+00  0.2993846381E+16 -0.6733723639E+00 -0.1315217583E-17  0.1456064067E+00
  0.4698893521E-01  0.1000000000E+01  0.4698893521E-01 -0.1588232880E+00  0.6484307412E-19 -0.3844938585E-01  0.2993846381E+16 -0.5019418591E+00 -0.5114883570E-18  0.4046872564E+00
  0.0000000000E+00  0.1000000000E+01  0.4698893521E-01 -0.2891531038E-01  0.2429598958E-20  0.1396136841E+00  0.2993846381E+16 -0.4259519066E-01  0.8335188924E-20  0.1782360309E+00
  0.4000000000E+00  0.1000000000E+01  0.1429536967E+00  0.2363403208E+00  0.3911603310E-17 -0.1595143048E+01  0.2993846381E+16 -0.6224783196E+00 -0.7464377761E-17 -0.1123250855E+01
  0.3530110648E+00  0.1000000000E+01  0.1429536967E+00 -0.2403363801E+00  0.1572816219E-16 -0.1496401144E+01  0.2993846381E+16 -0.8346968507E+00  0.1300311414E-16 -0.1027082942E+01
  0.2570463033E+00  0.1000000000E+01  0.1429536967E+00 -0.3111776681E+00  0.2368179533E-17 -0.1084097109E+01  0.2993846381E+16 -0.8268224518E+00  0.2547184347E-17 -0.5904447630E+00
  0.1429536967E+00  0.1000000000E+01  0.1429536967E+00 -0.6283673211E+00  0.9630688886E-18 -0.6327918350E+00  0.2993846381E+16 -0.1066850994E+01  0.1299423030E-17 -0.4539975111E-01
  0.4698893521E-01  0.1000000000E+01  0.1429536967E+00 -0.5856490941E+00  0.4383813864E-18 -0.3271269568E-02  0.2993846381E+16 -0.7164180661E+00 -0.1716381560E-17  0.4501860574E+00
  0.0000000000E+00  0.1000000000E+01  0.1429536967E+00 -0.2271230557E-01  0.7872830627E-20  0.1714950939E+00  0.2993846381E+16 -0.1454369869E-01  0.3720437580E-19  0.1918550344E+00
  0.4000000000E+00  0.1000000000E+01  0.2570463033E+00  0.5116212477E+00  0.4496440870E-17 -0.1507640384E+01  0.2993846381E+16 -0.7234643765E+00  0.3536198987E-17 -0.1331714979E+01
  0.3530110648E+00  0.1000000000E+01  0.2570463033E+00 -0.1429437755E+00 -0.1028820558E-16 -0.1508688304E+01  0.2993846381E+16 -0.8594035199E+00 -0.4331892376E-17 -0.1089894487E+01
  0.2570463033E+00  0.1000000000E+01  0.2570463033E+00 -0.4691461888E+00  0.2944444523E-17 -0.1190539435E+01  0.2993846381E+16 -0.1064894459E+01  0.2770427758E-17 -0.6793545187E+00
  0.1429536967E+00  0.1000000000E+01  0.2570463033E+00 -0.1104882231E+01  0.2067825230E-17 -0.6594777527E+00  0.2993846381E+16 -0.1478907365E+01  0.1961043170E-17 -0.2150477614E+00
  0.4698893521E-01  0.1000000000E+01  0.2570463033E+00 -0.1065892752E+01  0.2644263608E-17  0.6173089060E-01  0.2993846381E+16 -0.9930436525E+00  0.6088304786E-17  0.3296777690E+00
  0.0000000000E+00  0.1000000000E+01  0.2570463033E+00 -0.1771832563E-01 -0.2406826574E-19  0.1604183130E+00  0.2993846381E+16 -0.1329562277E-01 -0.5136790210E-19  0.1306624161E+00
  0.4000000000E+00  0.1000000000E+01  0.3530110648E+00  0.5211082263E+00  0.3199448304E-17 -0.2359712337E+01  0.2993846381E+16 -0.1662736931E+01  0.4558022252E-17 -0.1613584391E+01
  0.3530110648E+00  0.1000000000E+01  0.3530110648E+00 -0.1802975038E+00  0.2821682790E-17 -0.2150492753E+01  0.2993846381E+16 -0.1188432552E+01  0.3430353821E-17 -0.1234812308E+01
  0.2570463033E+00  0.1000000000E+01  0.3530110648E+00 -0.7332690934E+00  0.1500293878E-16 -0.1609466852E+01  0.2993846381E+16 -0.1223373407E+01  0.3357322899E-17 -0.8018397657E+00
  0.1429536967E+00  0.1000000000E+01  0.3530110648E+00 -0.1639598014E+01  0.4467367891E-17 -0.8170485101E+00  0.2993846381E+16 -0.1807603522E+01 -0.1211300749E-18 -0.2854281039E+00
  0.4698893521E-01  0.1000000000E+01  0.3530110648E+00 -0.1439139623E+01 -0.1579253402E-17  0.8804179129E-01  0.2993846381E+16 -0.1129859865E+01 -0.3466929298E-17  0.3032877576E+00
  0.0000000000E+00  0.1000000000E+01  0.3530110648E+00 -0.1858544408E-01 -0.1479402318E-19  0.1815050572E+00  0.2993846381E+16 -0.1020084397E-01  0.8193303392E-20  0.1041623167E+00
  0.4000000000E+00  0.1000000000E+01  0.4000000000E+00  0.3927435887E+00  0.2291026889E-17 -0.3416254609E+01  0.2993846381E+16 -0.1742454996E+01  0.1277923044E-17 -0.1891055418E+01
  0.3530110648E+00  0.1000000000E+01  0.4000000000E+00 -0.2940057352E+00  0.8045859163E-17 -0.2667020506E+01  0.2993846381E+16 -0.1182810597E+01  0.6754751771E-17 -0.1598259118E+01
  0.2570463033E+00  0.1000000000E+01  0.4000000000E+00 -0.9128428286E+00 -0.5791043768E-17 -0.1785070417E+01  0.2993846381E+16 -0.1293987478E+01 -0.3431373620E-17 -0.1123469471E+01
  0.1429536967E+00  0.1000000000E+01  0.4000000000E+00 -0.1915396441E+01 -0.1272869959E-17 -0.8803864794E+00  0.2993846381E+16 -0.1938667698E+01  0.2524851251E-17 -0.4964996327E+00
  0.4698893521E-01  0.1000000000E+01  0.4000000000E+00 -0.1653625350E+01 -0.1039903814E-17  0.6051601350E-01  0.2993846381E+16 -0.1201427673E+01 -0.1020209786E-17  0.1231071471E+00
  0.0000000000E+00  0.1000000000E+01  0.4000000000E+00 -0.7259328376E-02  0.4086317562E-19  0.1571801606E+00  0.2993846381E+16  0.3723895279E-02  0.5296097064E-19  0.4909956588E-01
ZONE I=6, J=6, K=1, F=POINT
  0.8000000000E+00  0.1000000000E+01  0.0000000000E+00 -0.3262526656E+00  0.3504436760E-19 -0.9677514916E-02  0.2993846381E+16 -0.5196841311E+00 -0.2788856632E-18 -0.2365363139E-02
  0.7530110648E+00  0.1000000000E+01  0.0000000000E+00 -0.3432754881E+00 -0.7358872847E-17  0.1151135263E-01  0.2993846381E+16 -0.5113282616E+00 -0.1172760766E-16  0.1894974880E-01
  0.6570463033E+00  0.1000000000E+01  0.0000000000E+00 -0.3302353856E+00 -0.4425470438E-17  0.9696322864E-02  0.2993846381E+16 -0.4574941294E+00 -0.5908490474E-17  0.1888969804E-01
  0.5429536967E+00  0.1000000000E+01  0.0000000000E+00 -0.2797758604E+00 -0.7447659621E-17  0.1943004270E-01  0.2993846381E+16 -0.3787015273E+00 -0.9886102330E-17  0.2935565501E-01
  0.4469889352E+00  0.1000000000E+01  0.0000000000E+00 -0.2385872182E+00 -0.7332582620E-17  0.1140756341E-01  0.2993846381E+16 -0.3176115248E+00 -0.9755386157E-17  0.1938969917E-01
  0.4000000000E+00  0.1000000000E+01  0.0000000000E+00 -0.2110831037E+00  0.1995046669E-19  0.1132200333E-01  0.2993846381E+16 -0.2732937006E+00 -0.9882567677E-19  0.1355720499E-01
  0.8000000000E+00  0.1000000000E+01  0.4698893521E-01  0.5588123984E+00 -0.2459399054E-16 -0.1370923606E+01  0.2993846381E+16 -0.6763655333E+00 -0.9739633510E-17 -0.1234463903E+01
  0.7530110648E+00  0.1000000000E+01  0.4698893521E-01  0.6532835272E+00 -0.1821891306E-16 -0.1450226419E+01  0.2993846381E+16 -0.4593313314E+00  0.4468443857E-16 -0.1300422751E+01
  0.6570463033E+00  0.1000000000E+01  0.4698893521E-01  0.3282670490E+00 -0.6320511598E-17 -0.1406067666E+01  0.2993846381E+16 -0.6119000159E+00 -0.1750253507E-16 -0.1358341437E+01
  0.5429536967E+00  0.1000000000E+01  0.4698893521E-01  0.2804153260E+00  0.2329277129E-17 -0.1357567622E+01  0.2993846381E+16 -0.5768574153E+00 -0.1223301665E-16 -0.1305535644E+01
  0.4469889352E+00  0.1000000000E+01  0.4698893521E-01  0.9058653964E-01  0.6317696273E-17 -0.1212505681E+01  0.2993846381E+16 -0.6892996667E+00  0.1078052867E-16 -0.9017046694E+00
  0.4000000000E+00  0.1000000000E+01  0.4698893521E-01  0.1767155921E+00  0.3766734616E-17 -0.1162648959E+01  0.2993846381E+16 -0.5064319150E+00  0.7735998687E-17 -0.6989795364E+00
  0.8000000000E+00  0.1000000000E+01  0.1429536967E+00  0.1836420861E+01 -0.4748619324E-16 -0.1836828324E+01  0.2993846381E+16  0.4212349103E+00 -0.8594011785E-16 -0.2159669599E+01
  0.7530110648E+00  0.1000000000E+01  0.1429536967E+00  0.1907806805E+01 -0.2382515693E-16 -0.1769505930E+01  0.2993846381E+16  0.6837536829E+00 -0.1395685141E-16 -0.1982531266E+01
  0.6570463033E+00  0.1000000000E+01  0.1429536967E+00  0.1163514896E+01  0.1917484116E-17 -0.1796869931E+01  0.2993846381E+16  0.1238762081E+00  0.4400445762E-16 -0.1748838112E+01
  0.5429536967E+00  0.1000000000E+01  0.1429536967E+00  0.8952173223E+00  0.4830761176E-17 -0.1598890871E+01  0.2993846381E+16 -0.1354710099E+00 -0.2442820027E-16 -0.1288482468E+01
  0.4469889352E+00  0.1000000000E+01  0.1429536967E+00  0.3715007344E+00  0.1907394426E-16 -0.1653488117E+01  0.2993846381E+16 -0.6096752132E+00  0.2373045830E-16 -0.1218913861E+01
  0.4000000000E+00  0.1000000000E+01  0.1429536967E+00  0.2871366143E+00  0.4730800417E-17 -0.1595123936E+01  0.2993846381E+16 -0.5693751666E+00 -0.6941628141E-17 -0.1123120429E+01
  0.8000000000E+00  0.1000000000E+01  0.2570463033E+00  0.3366087300E+01 -0.1063148471E-16 -0.2437573373E+01  0.2993846381E+16  0.1745491812E+01 -0.1457479250E-16 -0.2933323975E+01
  0.7530110648E+00  0.1000000000E+01  0.2570463033E+00  0.2851159727E+01 -0.2700433461E-16 -0.2190178590E+01  0.2993846381E+16  0.1413008228E+01 -0.2618700090E-16 -0.2638719873E+01
  0.6570463033E+00  0.1000000000E+01  0.2570463033E+00  0.1819222515E+01  0.5999439273E-17 -0.1925280386E+01  0.2993846381E+16  0.7490545274E+00  0.3559697033E-16 -0.2630014077E+01
  0.5429536967E+00  0.1000000000E+01  0.2570463033E+00  0.1328967336E+01  0.4375085979E-17 -0.1446587791E+01  0.2993846381E+16  0.8420454803E-01 -0.1608539951E-16 -0.2421970524E+01
  0.4469889352E+00  0.1000000000E+01  0.2570463033E+00  0.9250846007E+00 -0.6582330892E-17 -0.1532049389E+01  0.2993846381E+16 -0.5654200015E+00 -0.8933863064E-17 -0.1825206770E+01
  0.4000000000E+00  0.1000000000E+01  0.2570463033E+00  0.5412655731E+00  0.4536520408E-17 -0.1507013732E+01  0.2993846381E+16 -0.6933712291E+00  0.3377542017E-17 -0.1331224054E+01
  0.8000000000E+00  0.1000000000E+01  0.3530110648E+00  0.4003559705E+01  0.2888766563E-18 -0.4236196770E+01  0.2993846381E+16  0.2197776638E+01  0.1731205146E-17 -0.3894667848E+01
  0.7530110648E+00  0.1000000000E+01  0.3530110648E+00  0.3257072395E+01  0.5675468362E-18 -0.4082503932E+01  0.2993846381E+16  0.1893543940E+01 -0.7490081781E-16 -0.3627664515E+01
  0.6570463033E+00  0.1000000000E+01  0.3530110648E+00  0.2172002165E+01  0.4533623271E-16 -0.4079487132E+01  0.2993846381E+16  0.1850627925E+01  0.5467699783E-16 -0.3992290559E+01
  0.5429536967E+00  0.1000000000E+01  0.3530110648E+00  0.1501318949E+01  0.4844015506E-16 -0.3968556286E+01  0.2993846381E+16  0.7500200485E-01  0.1396047695E-15 -0.4472208764E+01
  0.4469889352E+00  0.1000000000E+01  0.3530110648E+00  0.7635818768E+00  0.1850243450E-16 -0.2914060246E+01  0.2993846381E+16 -0.2088506563E+01  0.8687777540E-17 -0.2668147218E+01
  0.4000000000E+00  0.1000000000E+01  0.3530110648E+00  0.5598269112E+00  0.2969642557E-17 -0.2361546178E+01  0.2993846381E+16 -0.1615482863E+01  0.4748190923E-17 -0.1616097486E+01
  0.8000000000E+00  0.1000000000E+01  0.4000000000E+00  0.4515654830E+01 -0.1364516788E-16 -0.4988005454E+01  0.2993846381E+16  0.2498729852E+01 -0.1350884431E-16 -0.3984814987E+01
  0.7530110648E+00  0.1000000000E+01  0.4000000000E+00  0.3401117171E+01  0.4020313280E-17 -0.5158911330E+01  0.2993846381E+16  0.1807119332E+01 -0.1095173605E-16 -0.3731203117E+01
  0.6570463033E+00  0.1000000000E+01  0.4000000000E+00  0.2736399787E+01 -0.2146838165E-16 -0.6087965861E+01  0.2993846381E+16  0.2510699399E+01 -0.1652973350E-16 -0.3771021693E+01
  0.5429536967E+00  0.1000000000E+01  0.4000000000E+00  0.1349146947E+01 -0.4572218474E-16 -0.6763232589E+01  0.2993846381E+16 -0.4955419750E-01 -0.5163668284E-16 -0.4299434717E+01
  0.4469889352E+00  0.1000000000E+01  0.4000000000E+00 -0.3793779476E-01 -0.1036207707E-16 -0.4712893731E+01  0.2993846381E+16 -0.3087677192E+01 -0.9014216359E-16 -0.2724565704E+01
  0.4000000000E+00  0.1000000000E+01  0.4000000000E+00  0.4060794315E+00  0.2186683986E-17 -0.3418338396E+01  0.2993846381E+16 -0.1714656568E+01  0.1653124253E-17 -0.1894407963E+01
ZONE I=6, J=6, K=1, F=POINT
  0.1200000000E+01  0.1000000000E+01  0.0000000000E+00 -0.2938506711E+00  0.2339698569E-18  0.3061381971E-01  0.2993846381E+16 -0.6865202335E+00 -0.4944774290E-19  0.3593200808E-01
  0.1153011065E+01  0.1000000000E+01  0.0000000000E+00 -0.2837547065E+00 -0.1164792294E-16 -0.1428210601E-01  0.2993846381E+16 -0.6581774884E+00 -0.3017565663E-16 -0.8632067540E-02
  0.1057046303E+01  0.1000000000E+01  0.0000000000E+00 -0.3048820225E+00 -0.7983341664E-17  0.4278214617E-02  0.2993846381E+16 -0.6335083231E+00 -0.1641805435E-16  0.1099323697E-01
  0.9429536967E+00  0.1000000000E+01  0.0000000000E+00 -0.3338939231E+00  0.2303214537E-18 -0.8479446255E-02  0.2993846381E+16 -0.6038666494E+00 -0.2977540990E-18 -0.1865802365E-02
  0.8469889352E+00  0.1000000000E+01  0.0000000000E+00 -0.3396703267E+00  0.3238953386E-19  0.8548637152E-02  0.2993846381E+16 -0.5595832305E+00 -0.3108012144E-19  0.1596839538E-01
  0.8000000000E+00  0.1000000000E+01  0.0000000000E+00 -0.3725303957E+00  0.1693882675E-19 -0.9221865872E-02  0.2993846381E+16 -0.5659737215E+00 -0.3291592494E-18 -0.1909946458E-02
  0.1200000000E+01  0.1000000000E+01  0.4698893521E-01  0.3013226370E+01 -0.6746629392E-16 -0.3663833224E+00  0.2993846381E+16  0.1332578355E+01  0.7270302968E-17 -0.1291867252E+01
  0.1153011065E+01  0.1000000000E+01  0.4698893521E-01  0.2317275697E+01 -0.4333735594E-16 -0.3700417163E+00  0.2993846381E+16  0.6278288559E+00  0.1045023753E-16 -0.1165371606E+01
  0.1057046303E+01  0.1000000000E+01  0.4698893521E-01  0.2040159046E+01 -0.8675457592E-17 -0.7749199778E+00  0.2993846381E+16  0.4412064167E+00 -0.2853657665E-16 -0.1284250897E+01
  0.9429536967E+00  0.1000000000E+01  0.4698893521E-01  0.1245463478E+01 -0.2282826011E-16 -0.1099356566E+01  0.2993846381E+16 -0.2275988399E+00  0.1750948865E-16 -0.1322527003E+01
  0.8469889352E+00  0.1000000000E+01  0.4698893521E-01  0.9995061859E+00 -0.3209504061E-16 -0.1361616908E+01  0.2993846381E+16 -0.3490722051E+00  0.2768154750E-16 -0.1322210945E+01
  0.8000000000E+00  0.1000000000E+01  0.4698893521E-01  0.4968410098E+00 -0.2399682490E-16 -0.1368408154E+01  0.2993846381E+16 -0.7376207865E+00 -0.8798357265E-17 -0.1232221535E+01
  0.1200000000E+01  0.1000000000E+01  0.1429536967E+00  0.6730585363E+01 -0.8489946054E-16 -0.6624287360E+00  0.2993846381E+16  0.4810234791E+01 -0.3446449827E-16 -0.2131039866E+01
  0.1153011065E+01  0.1000000000E+01  0.1429536967E+00  0.5403893414E+01 -0.1663946716E-16 -0.1046094347E+01  0.2993846381E+16  0.3381146484E+01 -0.1211931601E-15 -0.2386531189E+01
  0.1057046303E+01  0.1000000000E+01  0.1429536967E+00  0.4837607146E+01 -0.4210680513E-16 -0.1253280412E+01  0.2993846381E+16  0.2942064894E+01 -0.3850978842E-16 -0.2294341360E+01
  0.9429536967E+00  0.1000000000E+01  0.1429536967E+00  0.3253827613E+01 -0.3562866057E-16 -0.1824142224E+01  0.2993846381E+16  0.1486406901E+01 -0.3506820395E-16 -0.2543968762E+01
  0.8469889352E+00  0.1000000000E+01  0.1429536967E+00  0.2720127515E+01 -0.5278968943E-16 -0.1749472135E+01  0.2993846381E+16  0.1064393060E+01 -0.1324801844E-16 -0.2192353493E+01
  0.8000000000E+00  0.1000000000E+01  0.1429536967E+00  0.1745425729E+01 -0.4932943783E-16 -0.1838248474E+01  0.2993846381E+16  0.3323441209E+00 -0.8869747153E-16 -0.2161424970E+01
  0.1200000000E+01  0.1000000000E+01  0.2570463033E+00  0.7867323213E+01 -0.3365951882E-16 -0.1847613917E+01  0.2993846381E+16  0.5753789317E+01 -0.3365175113E-16 -0.3192760010E+01
  0.1153011065E+01  0.1000000000E+01  0.2570463033E+00  0.7498926906E+01 -0.1939735947E-15 -0.2281934557E+01  0.2993846381E+16  0.5200161103E+01  0.3242442534E-16 -0.3545448309E+01
  0.1057046303E+01  0.1000000000E+01  0.2570463033E+00  0.6538406339E+01 -0.3687108527E-16 -0.2338737488E+01  0.2993846381E+16  0.4278293859E+01 -0.4039727514E-16 -0.3287535853E+01
  0.9429536967E+00  0.1000000000E+01  0.2570463033E+00  0.5085255914E+01 -0.8375054727E-16 -0.2863627250E+01  0.2993846381E+16  0.3069546831E+01  0.2417467622E-16 -0.3428428778E+01
  0.8469889352E+00  0.1000000000E+01  0.2570463033E+00  0.4022778400E+01 -0.9929631051E-17 -0.2476650519E+01  0.2993846381E+16  0.2227618036E+01 -0.7491753628E-16 -0.2989048397E+01
  0.8000000000E+00  0.1000000000E+01  0.2570463033E+00  0.3324556375E+01 -0.1207894746E-16 -0.2440686781E+01  0.2993846381E+16  0.1703791144E+01 -0.1473486004E-16 -0.2935573590E+01
  0.1200000000E+01  0.1000000000E+01  0.3530110648E+00  0.8882459360E+01 -0.4739878091E-17 -0.3232530252E+01  0.2993846381E+16  0.6587929325E+01 -0.3872316366E-17 -0.4535176484E+01
  0.1153011065E+01  0.1000000000E+01  0.3530110648E+00  0.8416386218E+01 -0.4025093380E-16 -0.3430020646E+01  0.2993846381E+16  0.5850121896E+01 -0.6976420936E-17 -0.4595643180E+01
  0.1057046303E+01  0.1000000000E+01  0.3530110648E+00  0.7586244594E+01 -0.1867631058E-16 -0.3703738767E+01  0.2993846381E+16  0.4842425059E+01 -0.5031650990E-17 -0.4422768944E+01
  0.9429536967E+00  0.1000000000E+01  0.3530110648E+00  0.6074875958E+01 -0.5929622883E-16 -0.4224052154E+01  0.2993846381E+16  0.3778015745E+01  0.1773192536E-16 -0.4317343802E+01
  0.8469889352E+00  0.1000000000E+01  0.3530110648E+00  0.4901790092E+01  0.3654250822E-16 -0.4209476300E+01  0.2993846381E+16  0.3081452118E+01 -0.1709305320E-16 -0.3988826561E+01
  0.8000000000E+00  0.1000000000E+01  0.3530110648E+00  0.3951453598E+01 -0.6422178927E-18 -0.4237299730E+01  0.2993846381E+16  0.2143677912E+01  0.1328871920E-17 -0.3895834372E+01
  0.1200000000E+01  0.1000000000E+01  0.4000000000E+00  0.8937993379E+01 -0.6827651559E-17 -0.3462202495E+01  0.2993846381E+16  0.6496397556E+01 -0.5854667473E-17 -0.4719458037E+01
  0.1153011065E+01  0.1000000000E+01  0.4000000000E+00  0.8851704615E+01  0.2985982025E-16 -0.3815404204E+01  0.2993846381E+16  0.6121469747E+01 -0.6889219246E-17 -0.4913777025E+01
  0.1057046303E+01  0.1000000000E+01  0.4000000000E+00  0.7939214371E+01 -0.8268985737E-17 -0.3936296063E+01  0.2993846381E+16  0.4954655556E+01 -0.3594657310E-16 -0.4692833054E+01
  0.9429536967E+00  0.1000000000E+01  0.4000000000E+00  0.6588123298E+01 -0.7452419717E-16 -0.4539089745E+01  0.2993846381E+16  0.4018576257E+01 -0.2201555449E-16 -0.4664643011E+01
  0.8469889352E+00  0.1000000000E+01  0.4000000000E+00  0.5301674422E+01 -0.6884693348E-17 -0.4757984388E+01  0.2993846381E+16  0.3247805869E+01 -0.2621356795E-16 -0.4107998730E+01
  0.8000000000E+00  0.1000000000E+01  0.4000000000E+00  0.4512275431E+01 -0.1400423462E-16 -0.4993164262E+01  0.2993846381E+16  0.2487571666E+01 -0.1348737606E-16 -0.3990450944E+01
ZONE I=6, J=6, K=1, F=POINT
  0.1600000000E+01  0.1000000000E+01  0.0000000000E+00  0.5919544043E-01 -0.4481459320E-18 -0.8781628917E-01  0.2993846381E+16 -0.5483315947E+00 -0.1163105083E-17 -0.5276716852E-01
  0.1553011065E+01  0.1000000000E+01  0.0000000000E+00 -0.7561694641E-01  0.2025088543E-17  0.4044365477E-01  0.2993846381E+16 -0.6618462960E+00  0.3086127727E-16  0.4723617378E-01
  0.1457046303E+01  0.1000000000E+01  0.0000000000E+00 -0.1444016593E+00  0.3547333308E-17 -0.1181381098E-01  0.2993846381E+16 -0.6712917969E+00  0.1544715352E-16 -0.4730092278E-02
  0.1342953697E+01  0.1000000000E+01  0.0000000000E+00 -0.1893419208E+00 -0.1024283664E-16  0.2308004788E-01  0.2993846381E+16 -0.6535093281E+00 -0.3612052294E-16  0.2931821780E-01
  0.1246988935E+01  0.1000000000E+01  0.0000000000E+00 -0.2449336465E+00 -0.2117107089E-17 -0.1509247136E-01  0.2993846381E+16 -0.6621732393E+00 -0.2895382290E-17 -0.9113895221E-02
  0.1200000000E+01  0.1000000000E+01  0.0000000000E+00 -0.2019497456E+00  0.2307072917E-18  0.3054889230E-01  0.2993846381E+16 -0.5954644716E+00 -0.1887963841E-18  0.3592016102E-01
  0.1600000000E+01  0.1000000000E+01  0.4698893521E-01  0.3989768209E+01 -0.1132185485E-15 -0.6588955379E+00  0.2993846381E+16  0.2098878433E+01 -0.7007996067E-16 -0.1283578243E+01
  0.1553011065E+01  0.1000000000E+01  0.4698893521E-01  0.4373926213E+01 -0.2127826491E-16 -0.1001868190E+01  0.2993846381E+16  0.2670717337E+01 -0.7212971501E-16 -0.1727897501E+01
  0.1457046303E+01  0.1000000000E+01  0.4698893521E-01  0.3437731206E+01 -0.3299777903E-16 -0.3828877650E+00  0.2993846381E+16  0.1710455916E+01  0.1778091695E-16 -0.1450200200E+01
  0.1342953697E+01  0.1000000000E+01  0.4698893521E-01  0.3427247354E+01  0.3102058567E-16 -0.2868027066E+00  0.2993846381E+16  0.1688293938E+01  0.1512409193E-16 -0.1264899036E+01
  0.1246988935E+01  0.1000000000E+01  0.4698893521E-01  0.2716362030E+01  0.1063489190E-16 -0.1835258571E+00  0.2993846381E+16  0.1085675500E+01 -0.5724380535E-16 -0.1131085557E+01
  0.1200000000E+01  0.1000000000E+01  0.4698893521E-01  0.3116100308E+01 -0.7220316089E-16 -0.3725701587E+00  0.2993846381E+16  0.1432656584E+01  0.3201600747E-17 -0.1297276347E+01
  0.1600000000E+01  0.1000000000E+01  0.1429536967E+00  0.7685978889E+01 -0.2219497354E-15 -0.1241560183E+01  0.2993846381E+16  0.5582760228E+01 -0.3372160186E-15 -0.3283962908E+01
  0.1553011065E+01  0.1000000000E+01  0.1429536967E+00  0.8911716947E+01 -0.1769905542E-15 -0.4856593201E+00  0.2993846381E+16  0.7405854420E+01 -0.1147241127E-15 -0.2456659151E+01
  0.1457046303E+01  0.1000000000E+01  0.1429536967E+00  0.7151500592E+01  0.5617167618E-16 -0.5569305961E+00  0.2993846381E+16  0.5428696193E+01 -0.5284382203E-16 -0.2384021954E+01
  0.1342953697E+01  0.1000000000E+01  0.1429536967E+00  0.7358028051E+01  0.1092992736E-15  0.9959208807E-02  0.2993846381E+16  0.5465061244E+01  0.3922871143E-16 -0.1627558691E+01
  0.1246988935E+01  0.1000000000E+01  0.1429536967E+00  0.5878284765E+01 -0.2473221411E-16 -0.6809231450E+00  0.2993846381E+16  0.4229465951E+01  0.1073911097E-15 -0.2220469194E+01
  0.1200000000E+01  0.1000000000E+01  0.1429536967E+00  0.6905215245E+01 -0.8829789896E-16 -0.6554552477E+00  0.2993846381E+16  0.4968809569E+01 -0.3905313149E-16 -0.2125802678E+01
  0.1600000000E+01  0.1000000000E+01  0.2570463033E+00  0.1341611369E+02  0.7868242064E-16 -0.2040936191E+01  0.2993846381E+16  0.1117661171E+02  0.7185976295E-16 -0.4334084340E+01
  0.1553011065E+01  0.1000000000E+01  0.2570463033E+00  0.1203463547E+02  0.1115218927E-15 -0.1160324548E+01  0.2993846381E+16  0.1005927609E+02  0.7721035693E-16 -0.3273604789E+01
  0.1457046303E+01  0.1000000000E+01  0.2570463033E+00  0.1070621170E+02  0.2046464308E-15 -0.1528913440E+01  0.2993846381E+16  0.8665828608E+01  0.8822918692E-16 -0.3230681109E+01
  0.1342953697E+01  0.1000000000E+01  0.2570463033E+00  0.9179823112E+01  0.1475715901E-15 -0.7704314138E+00  0.2993846381E+16  0.7195011269E+01  0.3539930849E-16 -0.2350219614E+01
  0.1246988935E+01  0.1000000000E+01  0.2570463033E+00  0.8022939909E+01  0.5507967917E-16 -0.1875119884E+01  0.2993846381E+16  0.6168571309E+01 -0.5618063048E-16 -0.3316179598E+01
  0.1200000000E+01  0.1000000000E+01  0.2570463033E+00  0.7914848492E+01 -0.3513751732E-16 -0.1836225040E+01  0.2993846381E+16  0.5799026819E+01 -0.3331474291E-16 -0.3185289304E+01
  0.1600000000E+01  0.1000000000E+01  0.3530110648E+00  0.1250791122E+02  0.1630212315E-15 -0.2951997298E+01  0.2993846381E+16  0.1001171676E+02  0.1702617564E-15 -0.4782752587E+01
  0.1553011065E+01  0.1000000000E+01  0.3530110648E+00  0.1242977486E+02  0.1777895919E-15 -0.2950380887E+01  0.2993846381E+16  0.1015047374E+02  0.1617581253E-15 -0.4674952184E+01
  0.1457046303E+01  0.1000000000E+01  0.3530110648E+00  0.1113349039E+02  0.2119322022E-15 -0.2724103940E+01  0.2993846381E+16  0.8979367965E+01  0.1052115816E-15 -0.4426809021E+01
  0.1342953697E+01  0.1000000000E+01  0.3530110648E+00  0.9937896121E+01  0.1288710147E-15 -0.2391091518E+01  0.2993846381E+16  0.7870417242E+01  0.7899857676E-16 -0.4043172826E+01
  0.1246988935E+01  0.1000000000E+01  0.3530110648E+00  0.8776221657E+01 -0.8555597839E-17 -0.3050137885E+01  0.2993846381E+16  0.6685281714E+01  0.6870760583E-16 -0.4487241619E+01
  0.1200000000E+01  0.1000000000E+01  0.3530110648E+00  0.8969567956E+01 -0.4310465889E-17 -0.3232123418E+01  0.2993846381E+16  0.6670579849E+01 -0.3837656066E-17 -0.4534865376E+01
  0.1600000000E+01  0.1000000000E+01  0.4000000000E+00  0.1294766902E+02  0.1614244687E-15 -0.2983574419E+01  0.2993846381E+16  0.1028749912E+02  0.1623837127E-15 -0.5081206097E+01
  0.1553011065E+01  0.1000000000E+01  0.4000000000E+00  0.1195847830E+02  0.1305172004E-15 -0.2355993865E+01  0.2993846381E+16  0.9622815337E+01  0.1759351588E-15 -0.4320281117E+01
  0.1457046303E+01  0.1000000000E+01  0.4000000000E+00  0.1124206505E+02  0.1280597748E-15 -0.2752658197E+01  0.2993846381E+16  0.9095802361E+01  0.1318302970E-15 -0.4628942578E+01
  0.1342953697E+01  0.1000000000E+01  0.4000000000E+00  0.9980357744E+01  0.1535548129E-15 -0.2467749642E+01  0.2993846381E+16  0.7832105878E+01  0.1883952294E-16 -0.4238102531E+01
  0.1246988935E+01  0.1000000000E+01  0.4000000000E+00  0.9215983698E+01  0.5585176731E-17 -0.3463355830E+01  0.2993846381E+16  0.6962666043E+01  0.3846332662E-16 -0.4911383187E+01
  0.1200000000E+01  0.1000000000E+01  0.4000000000E+00  0.8907674865E+01 -0.5907602842E-17 -0.3448426289E+01  0.2993846381E+16  0.6467874851E+01 -0.5733554742E-17 -0.4709363621E+01
ZONE I=6, J=6, K=1, F=POINT
  0.2000000000E+01  0.1000000000E+01  0.0000000000E+00  0.2438077674E+01  0.6886969579E-19  0.2126784477E+02  0.2993846381E+16  0.2375318382E+01 -0.6497644722E-19  0.2210157924E+02
  0.1953011065E+01  0.1000000000E+01  0.0000000000E+00  0.1413421315E+01 -0.3808157164E-16 -0.7438890802E-01  0.2993846381E+16  0.6833816954E+00 -0.2158619811E-16 -0.1949889991E+00
  0.1857046303E+01  0.1000000000E+01  0.0000000000E+00 -0.2195588435E+00 -0.1486836003E-16  0.1284090709E+00  0.2993846381E+16 -0.1068748463E+01 -0.6281492149E-16  0.1575658544E+00
  0.1742953697E+01  0.1000000000E+01  0.0000000000E+00  0.1366187729E+00  0.6270104293E-18 -0.3994531896E-01  0.2993846381E+16 -0.5772243489E+00 -0.1901120896E-17 -0.4511148455E-01
  0.1646988935E+01  0.1000000000E+01  0.0000000000E+00 -0.1748669359E+00  0.9794895016E-18  0.5061989816E-01  0.2993846381E+16 -0.9254495656E+00  0.2758332381E-17  0.6561710458E-01
  0.1600000000E+01  0.1000000000E+01  0.0000000000E+00  0.9706851627E-02 -0.5772771960E-18 -0.9977317106E-01  0.2993846381E+16 -0.5779309428E+00 -0.1166738332E-17 -0.6302612359E-01
  0.2000000000E+01  0.1000000000E+01  0.4698893521E-01  0.5668249002E-01  0.9759483856E-18  0.4860816519E+02  0.2993846381E+16 -0.1035447984E+00  0.7288449065E-18  0.4802474259E+02
  0.1953011065E+01  0.1000000000E+01  0.4698893521E-01  0.1262144164E+02  0.1491972988E-15  0.2986562916E+01  0.2993846381E+16  0.1063975216E+02  0.1301362596E-15  0.1032932052E+01
  0.1857046303E+01  0.1000000000E+01  0.4698893521E-01  0.1341480779E+02  0.4158345150E-15 -0.8046681051E+00  0.2993846381E+16  0.1111110804E+02  0.2518708661E-15 -0.2677578360E+01
  0.1742953697E+01  0.1000000000E+01  0.4698893521E-01  0.7209815617E+01 -0.6151486710E-16 -0.3494264960E+00  0.2993846381E+16  0.5026845034E+01 -0.5359946625E-16 -0.2001517684E+01
  0.1646988935E+01  0.1000000000E+01  0.4698893521E-01  0.6042110643E+01 -0.2131072956E-15 -0.1275972183E+01  0.2993846381E+16  0.3513993453E+01 -0.7924442409E-16 -0.2185934473E+01
  0.1600000000E+01  0.1000000000E+01  0.4698893521E-01  0.3805484160E+01 -0.1096570885E-15 -0.6696853602E+00  0.2993846381E+16  0.1938904873E+01 -0.6722091887E-16 -0.1301355628E+01
  0.2000000000E+01  0.1000000000E+01  0.1429536967E+00 -0.3120011055E+00  0.9844261142E-18  0.5058521202E+02  0.2993846381E+16 -0.2588114605E+00  0.2398605974E-17  0.4962341046E+02
  0.1953011065E+01  0.1000000000E+01  0.1429536967E+00  0.4500703908E+01 -0.3607982297E-15  0.1807979954E+02  0.2993846381E+16  0.2451213836E+01 -0.5445262526E-15  0.1569690666E+02
  0.1857046303E+01  0.1000000000E+01  0.1429536967E+00  0.1499137976E+02 -0.4112326855E-15 -0.2098107482E+01  0.2993846381E+16  0.1266815167E+02 -0.2723529226E-15 -0.4457137905E+01
  0.1742953697E+01  0.1000000000E+01  0.1429536967E+00  0.1233493133E+02  0.1797045193E-15 -0.2997820692E+01  0.2993846381E+16  0.9802671446E+01 -0.6979901488E-16 -0.5356055711E+01
  0.1646988935E+01  0.1000000000E+01  0.1429536967E+00  0.1171049342E+02 -0.1760016153E-15 -0.1373101087E+01  0.2993846381E+16  0.8531147949E+01 -0.1821858257E-15 -0.3530566306E+01
  0.1600000000E+01  0.1000000000E+01  0.1429536967E+00  0.7285015729E+01 -0.2350147858E-15 -0.1242664612E+01  0.2993846381E+16  0.5238462649E+01 -0.3529847693E-15 -0.3289148656E+01
  0.2000000000E+01  0.1000000000E+01  0.2570463033E+00  0.1155823971E-01  0.1303356219E-17  0.4984269721E+02  0.2993846381E+16  0.2964277591E-02  0.7730080516E-18  0.4907648160E+02