TITLE = "Generated from ../MESH/Convergence_0000000000.hmesh and Convergence_0000000700.hsol"
VARIABLES = "x","y","z","veloT_x","veloT_y","veloT_z","slr_4","velo_x","velo_y","velo_z"
ZONE I=6, J=6, K=1, F=POINT
  0.4000000000E+00  0.1000000000E+01  0.0000000000E+00 -0.1022218063E-01  0.3106091358E-19  0.6533366077E-02  0.6277766036E+15 -0.8676199413E-02  0.3255053362E-19  0.7012768446E-02
  0.3530110648E+00  0.1000000000E+01  0.0000000000E+00  0.1844921927E-02  0.9706277907E-20 -0.4814810413E-03  0.6277766036E+15  0.3868493313E-02  0.1234322166E-19 -0.2055764246E-03
  0.2570463033E+00  0.1000000000E+01  0.0000000000E+00  0.3020378215E-02  0.1502212440E-20  0.2248583439E-02  0.6277766036E+15  0.5069537401E-02  0.2498533528E-20  0.2327596679E-02
  0.1429536967E+00  0.1000000000E+01  0.0000000000E+00  0.3028279226E-02  0.3402894023E-21 -0.9257644821E-03  0.6277766036E+15  0.5577603230E-02  0.5423115343E-21 -0.6916289684E-03
  0.4698893521E-01  0.1000000000E+01  0.0000000000E+00  0.5320204941E-02 -0.2375175501E-20  0.1894524062E-02  0.6277766036E+15  0.7721864282E-02 -0.1471167685E-20  0.1378774227E-02
  0.0000000000E+00  0.1000000000E+01  0.0000000000E+00 -0.7884830280E-02  0.1346006709E-22  0.2212121481E-02  0.6277766036E+15 -0.7450319510E-02  0.8866026243E-23  0.1737237947E-02
  0.4000000000E+00  0.1000000000E+01  0.4698893521E-01  0.2114989320E+00  0.1789833131E-17 -0.6788861287E-01  0.6277766036E+15  0.2204122066E+00  0.1742816005E-17 -0.9117945486E-01
  0.3530110648E+00  0.1000000000E+01  0.4698893521E-01  0.5773678518E-01  0.1485710704E-17 -0.2555622908E-01  0.6277766036E+15  0.6927772614E-01  0.1395947004E-17 -0.4903277681E-01
  0.2570463033E+00  0.1000000000E+01  0.4698893521E-01  0.3570449581E-01  0.2150746661E-18 -0.2770196069E-01  0.6277766036E+15  0.4552385480E-01  0.1727003566E-18 -0.4866510542E-01
  0.1429536967E+00  0.1000000000E+01  0.4698893521E-01 -0.2911479511E-01 -0.7004078315E-19 -0.7009426115E-02  0.6277766036E+15 -0.1545032000E-01 -0.4217319532E-19 -0.2217391575E-01
  0.4698893521E-01  0.1000000000E+01  0.4698893521E-01 -0.7180408134E-02 -0.2703890853E-19 -0.5392161320E-02  0.6277766036E+15  0.6457833647E-02 -0.7592343694E-20 -0.1905549796E-01
  0.0000000000E+00  0.1000000000E+01  0.4698893521E-01 -0.1981289583E-01  0.9138021561E-21 -0.1008195686E-02  0.6277766036E+15 -0.1925235129E-01  0.9405023250E-21 -0.3314176265E-02
  0.4000000000E+00  0.1000000000E+01  0.1429536967E+00  0.3911360882E+00  0.7310228824E-17 -0.1329656105E+00  0.6277766036E+15  0.4000600513E+00  0.7438993491E-17 -0.1646198279E+00
  0.3530110648E+00  0.1000000000E+01  0.1429536967E+00  0.1381279661E+00  0.3419182568E-17 -0.1581190405E+00  0.6277766036E+15  0.1476764243E+00  0.3614976030E-17 -0.1884240256E+00
  0.2570463033E+00  0.1000000000E+01  0.1429536967E+00  0.8143401517E-01  0.4840666021E-18 -0.5882790036E-01  0.6277766036E+15  0.8444595078E-01  0.4714833417E-18 -0.8261868550E-01
  0.1429536967E+00  0.1000000000E+01  0.1429536967E+00 -0.3932896248E-01 -0.7882353857E-20 -0.4776085840E-01  0.6277766036E+15 -0.3009190603E-01 -0.1697955087E-19 -0.6365649666E-01
  0.4698893521E-01  0.1000000000E+01  0.1429536967E+00 -0.1711590288E-01 -0.3995292415E-19  0.2133882891E-01  0.6277766036E+15 -0.3836945769E-02  0.2649829647E-19  0.6900363949E-02
  0.0000000000E+00  0.1000000000E+01  0.1429536967E+00 -0.2307746560E-01 -0.4931676795E-22 -0.5138901023E-02  0.6277766036E+15 -0.2332967357E-01 -0.1243946868E-21 -0.7712615259E-02
  0.4000000000E+00  0.1000000000E+01  0.2570463033E+00  0.3599630176E+00  0.2087596371E-18 -0.2896311873E+00  0.6277766036E+15  0.3641903883E+00  0.2071645921E-18 -0.3120616987E+00
  0.3530110648E+00  0.1000000000E+01  0.2570463033E+00  0.2400298220E+00 -0.6733979620E-18 -0.3191672397E+00  0.6277766036E+15  0.2426258511E+00 -0.9489964144E-18 -0.3387156073E+00
  0.2570463033E+00  0.1000000000E+01  0.2570463033E+00  0.1583603742E+00 -0.3562796140E-18 -0.1474710948E+00  0.6277766036E+15  0.1531114817E+00 -0.3527839240E-18 -0.1609798585E+00
  0.1429536967E+00  0.1000000000E+01  0.2570463033E+00  0.3718262896E-01  0.2019521859E-18 -0.1348035702E+00  0.6277766036E+15  0.4382380004E-01  0.2049001368E-18 -0.1453490000E+00
  0.4698893521E-01  0.1000000000E+01  0.2570463033E+00  0.8305703407E-02  0.5599331406E-18  0.1537484534E-01  0.6277766036E+15  0.2343169455E-01  0.4129818023E-18  0.3860403339E-02
  0.0000000000E+00  0.1000000000E+01  0.2570463033E+00 -0.1574529107E-01 -0.4170052543E-20 -0.4082432189E-02  0.6277766036E+15 -0.1575578767E-01 -0.3686896824E-20 -0.6403425366E-02
  0.4000000000E+00  0.1000000000E+01  0.3530110648E+00  0.3550627092E+00 -0.3835191837E-18 -0.3871277110E+00  0.6277766036E+15  0.3540418305E+00 -0.3811827461E-18 -0.4116902332E+00
  0.3530110648E+00  0.1000000000E+01  0.3530110648E+00  0.2622658989E+00 -0.6878451057E-18 -0.3977684233E+00  0.6277766036E+15  0.2588762147E+00 -0.6964378406E-18 -0.4198431945E+00
  0.2570463033E+00  0.1000000000E+01  0.3530110648E+00  0.2068209834E+00 -0.1229854092E-17 -0.2451416759E+00  0.6277766036E+15  0.1979951712E+00 -0.9748204341E-18 -0.2632651355E+00
  0.1429536967E+00  0.1000000000E+01  0.3530110648E+00  0.7164202137E-01  0.2635399460E-19 -0.2331887618E+00  0.6277766036E+15  0.7800267618E-01  0.1612082466E-18 -0.2490921273E+00
  0.4698893521E-01  0.1000000000E+01  0.3530110648E+00  0.1554259370E-01 -0.1558826295E-18 -0.4226281295E-01  0.6277766036E+15  0.3062908886E-01 -0.3389316337E-19 -0.5606963794E-01
  0.0000000000E+00  0.1000000000E+01  0.3530110648E+00 -0.1554065599E-01  0.5636757069E-20 -0.4302239439E-02  0.6277766036E+15 -0.1573676187E-01  0.4514610876E-20 -0.6897657675E-02
  0.4000000000E+00  0.1000000000E+01  0.4000000000E+00  0.3269322406E+00  0.5726259844E-18 -0.4057142624E+00  0.6277766036E+15  0.3240218417E+00  0.5723536727E-18 -0.4345508409E+00
  0.3530110648E+00  0.1000000000E+01  0.4000000000E+00  0.2918893175E+00 -0.1729792453E-18 -0.4154995759E+00  0.6277766036E+15  0.2862298375E+00 -0.9624661369E-19 -0.4424390879E+00
  0.2570463033E+00  0.1000000000E+01  0.4000000000E+00  0.2203598720E+00 -0.2502096674E-17 -0.2754399051E+00  0.6277766036E+15  0.2098698420E+00 -0.2622545550E-17 -0.2976156032E+00
  0.1429536967E+00  0.1000000000E+01  0.4000000000E+00  0.8852235163E-01 -0.7321127383E-18 -0.2788695402E+00  0.6277766036E+15  0.9315200154E-01 -0.8699481126E-18 -0.2955208212E+00
  0.4698893521E-01  0.1000000000E+01  0.4000000000E+00  0.1235563977E-01 -0.5949387678E-18 -0.7145004817E-01  0.6277766036E+15  0.2581920808E-01 -0.5555327927E-18 -0.8191183619E-01
  0.0000000000E+00  0.1000000000E+01  0.4000000000E+00 -0.8349658455E-02  0.9858208861E-20 -0.4234179356E-02  0.6277766036E+15 -0.8484705109E-02  0.9296095494E-20 -0.6508048430E-02
ZONE I=6, J=6, K=1, F=POINT
  0.8000000000E+00  0.1000000000E+01  0.0000000000E+00  0.1893250960E-01 -0.5405437990E-19 -0.1061281606E-01  0.6277766036E+15  0.1962735162E-01 -0.5438899566E-19 -0.9977926328E-02
  0.7530110648E+00  0.1000000000E+01  0.0000000000E+00  0.2687493528E-02  0.1460419560E-18  0.6042724389E-02  0.6277766036E+15  0.3211631125E-02  0.1631709875E-18  0.6206936915E-02
  0.6570463033E+00  0.1000000000E+01  0.0000000000E+00  0.5852108751E-03  0.3397816999E-19  0.6144688406E-04  0.6277766036E+15  0.1391998323E-02  0.4435402467E-19  0.2125827965E-03
  0.5429536967E+00  0.1000000000E+01  0.0000000000E+00  0.2551023057E-02  0.7277627105E-19  0.6530185586E-02  0.6277766036E+15  0.3842827044E-02  0.1085743886E-18  0.6697975981E-02
  0.4469889352E+00  0.1000000000E+01  0.0000000000E+00  0.4353840383E-03  0.3917756326E-19  0.2906259856E-03  0.6277766036E+15  0.2143880448E-02  0.9626934173E-19  0.5445950145E-03
  0.4000000000E+00  0.1000000000E+01  0.0000000000E+00  0.1800447926E-01  0.3496108138E-19  0.6162403430E-02  0.6277766036E+15  0.1990516887E-01  0.3636278738E-19  0.6652156536E-02
  0.8000000000E+00  0.1000000000E+01  0.4698893521E-01  0.3566063903E+00 -0.2786207490E-16 -0.3342819180E-02  0.6277766036E+15  0.3612961359E+00 -0.2791278130E-16 -0.2750448102E-01
  0.7530110648E+00  0.1000000000E+01  0.4698893521E-01  0.5790758260E+00 -0.2883668200E-16 -0.6956354398E-01  0.6277766036E+15  0.5835029686E+00 -0.2906065450E-16 -0.9582073437E-01
  0.6570463033E+00  0.1000000000E+01  0.4698893521E-01  0.3307623666E+00 -0.6139369647E-17 -0.4419888057E-01  0.6277766036E+15  0.3360367839E+00 -0.6119834845E-17 -0.7367535379E-01
  0.5429536967E+00  0.1000000000E+01  0.4698893521E-01  0.3256402369E+00  0.4882383488E-17 -0.3588815977E-01  0.6277766036E+15  0.3317637839E+00  0.4967743226E-17 -0.6515044385E-01
  0.4469889352E+00  0.1000000000E+01  0.4698893521E-01  0.1548226686E+00  0.3146842734E-17 -0.2533822398E-01  0.6277766036E+15  0.1626575862E+00  0.3123135988E-17 -0.4966476748E-01
  0.4000000000E+00  0.1000000000E+01  0.4698893521E-01  0.2579076258E+00  0.1524382696E-17 -0.6867672803E-01  0.6277766036E+15  0.2673971315E+00  0.1473973172E-17 -0.9194863529E-01
  0.8000000000E+00  0.1000000000E+01  0.1429536967E+00  0.6816950458E+00 -0.5138266857E-16 -0.2935510113E+00  0.6277766036E+15  0.6924747031E+00 -0.5109266588E-16 -0.3318352484E+00
  0.7530110648E+00  0.1000000000E+01  0.1429536967E+00  0.1052032741E+01 -0.3415583177E-16 -0.1828375025E+00  0.6277766036E+15  0.1060119955E+01 -0.3395997628E-16 -0.2228074357E+00
  0.6570463033E+00  0.1000000000E+01  0.1429536967E+00  0.6600908380E+00 -0.8881006231E-17 -0.2307920545E+00  0.6277766036E+15  0.6672429137E+00 -0.9185507078E-17 -0.2719269405E+00
  0.5429536967E+00  0.1000000000E+01  0.1429536967E+00  0.6161277937E+00  0.9203018082E-17 -0.9983776681E-01  0.6277766036E+15  0.6184066858E+00  0.9238058941E-17 -0.1389172849E+00
  0.4469889352E+00  0.1000000000E+01  0.1429536967E+00  0.3089074766E+00  0.7699013555E-17 -0.1702409256E+00  0.6277766036E+15  0.3112245262E+00  0.7851543787E-17 -0.2041361930E+00
  0.4000000000E+00  0.1000000000E+01  0.1429536967E+00  0.4463167432E+00  0.8092406676E-17 -0.1324122690E+00  0.6277766036E+15  0.4557232493E+00  0.8230121054E-17 -0.1640630473E+00
  0.8000000000E+00  0.1000000000E+01  0.2570463033E+00  0.8900119244E+00 -0.4343970766E-17 -0.5827340856E+00  0.6277766036E+15  0.9043727573E+00 -0.4336301237E-17 -0.6080260638E+00
  0.7530110648E+00  0.1000000000E+01  0.2570463033E+00  0.9088990787E+00 -0.4782409352E-17 -0.4055650646E+00  0.6277766036E+15  0.9197135392E+00 -0.5210129983E-17 -0.4315423313E+00
  0.6570463033E+00  0.1000000000E+01  0.2570463033E+00  0.6635691902E+00 -0.7817871722E-17 -0.4689966137E+00  0.6277766036E+15  0.6704568051E+00 -0.7978920818E-17 -0.4956929449E+00
  0.5429536967E+00  0.1000000000E+01  0.2570463033E+00  0.5495082665E+00 -0.5589232519E-18 -0.2574858108E+00  0.6277766036E+15  0.5490859059E+00 -0.5648090252E-18 -0.2833415964E+00
  0.4469889352E+00  0.1000000000E+01  0.2570463033E+00  0.3598146534E+00  0.3278170491E-18 -0.3550113558E+00  0.6277766036E+15  0.3572728288E+00  0.1796367322E-19 -0.3793239797E+00
  0.4000000000E+00  0.1000000000E+01  0.2570463033E+00  0.3944467124E+00  0.2472514527E-18 -0.2890211294E+00  0.6277766036E+15  0.3985188064E+00  0.2450891805E-18 -0.3114550660E+00
  0.8000000000E+00  0.1000000000E+01  0.3530110648E+00  0.6090378036E+00  0.6698062818E-17 -0.7404585794E+00  0.6277766036E+15  0.6230567172E+00  0.6677069509E-17 -0.7641290145E+00
  0.7530110648E+00  0.1000000000E+01  0.3530110648E+00  0.6848943364E+00  0.9960576611E-17 -0.6171682625E+00  0.6277766036E+15  0.6974297552E+00  0.1058789605E-16 -0.6406338275E+00
  0.6570463033E+00  0.1000000000E+01  0.3530110648E+00  0.5080246959E+00 -0.3702100949E-17 -0.6074958684E+00  0.6277766036E+15  0.5162299049E+00 -0.3602251019E-17 -0.6326071716E+00
  0.5429536967E+00  0.1000000000E+01  0.3530110648E+00  0.4612258867E+00 -0.8119391615E-17 -0.3858218731E+00  0.6277766036E+15  0.4605726927E+00 -0.7824580207E-17 -0.4121795150E+00
  0.4469889352E+00  0.1000000000E+01  0.3530110648E+00  0.3050281087E+00 -0.9795089249E-18 -0.4385307631E+00  0.6277766036E+15  0.3004927384E+00 -0.7669550005E-18 -0.4643576140E+00
  0.4000000000E+00  0.1000000000E+01  0.3530110648E+00  0.3899040730E+00 -0.4171695220E-18 -0.3869420465E+00  0.6277766036E+15  0.3892404715E+00 -0.4164532629E-18 -0.4114762200E+00
  0.8000000000E+00  0.1000000000E+01  0.4000000000E+00  0.5568146618E+00 -0.6436617120E-17 -0.8295493810E+00  0.6277766036E+15  0.5703220227E+00 -0.6444712960E-17 -0.8625115941E+00
  0.7530110648E+00  0.1000000000E+01  0.4000000000E+00  0.5186526281E+00 -0.2622169962E-17 -0.6560803334E+00  0.6277766036E+15  0.5310935370E+00 -0.2480708932E-17 -0.6885862512E+00
  0.6570463033E+00  0.1000000000E+01  0.4000000000E+00  0.4209549166E+00 -0.3646720295E-17 -0.6488765648E+00  0.6277766036E+15  0.4295162505E+00 -0.3799101820E-17 -0.6797518489E+00
  0.5429536967E+00  0.1000000000E+01  0.4000000000E+00  0.3893828991E+00  0.4594672120E-18 -0.4557750297E+00  0.6277766036E+15  0.3889478672E+00  0.2173392361E-18 -0.4867380860E+00
  0.4469889352E+00  0.1000000000E+01  0.4000000000E+00  0.3328949402E+00  0.1333529395E-17 -0.4705753342E+00  0.6277766036E+15  0.3274770280E+00  0.1303562990E-17 -0.5013176382E+00
  0.4000000000E+00  0.1000000000E+01  0.4000000000E+00  0.3417668818E+00  0.5898014121E-18 -0.4050348343E+00  0.6277766036E+15  0.3386440253E+00  0.5899207196E-18 -0.4338737252E+00
ZONE I=6, J=6, K=1, F=POINT
  0.1200000000E+01  0.1000000000E+01  0.0000000000E+00 -0.3411938334E-01  0.9846343532E-19  0.3666870725E-01  0.6277766036E+15 -0.3458661105E-01  0.9997247463E-19  0.3700868783E-01
  0.1153011065E+01  0.1000000000E+01  0.0000000000E+00 -0.5855727710E-02 -0.1690997266E-18 -0.9113273418E-02  0.6277766036E+15 -0.6053397354E-02 -0.1674012698E-18 -0.9012217967E-02
  0.1057046303E+01  0.1000000000E+01  0.0000000000E+00  0.1664900753E-02  0.3228579092E-19  0.6029022978E-02  0.6277766036E+15  0.1845860180E-02  0.3609885121E-19  0.6115314453E-02
  0.9429536967E+00  0.1000000000E+01  0.0000000000E+00 -0.2720657140E-02  0.4250559122E-19 -0.7963883550E-02  0.6277766036E+15 -0.1963122950E-02  0.4712157392E-19 -0.7895290101E-02
  0.8469889352E+00  0.1000000000E+01  0.0000000000E+00  0.3179581663E-02  0.1424489897E-19  0.5595166536E-02  0.6277766036E+15  0.4273304056E-02  0.1474981237E-19  0.5804301912E-02
  0.8000000000E+00  0.1000000000E+01  0.0000000000E+00 -0.2843866005E-01 -0.6397603863E-19 -0.9940754782E-02  0.6277766036E+15 -0.2754108053E-01 -0.6435679388E-19 -0.9316173045E-02
  0.1200000000E+01  0.1000000000E+01  0.4698893521E-01  0.1806583897E+01 -0.4377949927E-16 -0.1836088900E+00  0.6277766036E+15  0.1807921747E+01 -0.4380824749E-16 -0.1643579667E+00
  0.1153011065E+01  0.1000000000E+01  0.4698893521E-01  0.1143168850E+01 -0.2277503096E-16 -0.3105786818E-01  0.6277766036E+15  0.1145435215E+01 -0.2286473111E-16 -0.1639176232E-01
  0.1057046303E+01  0.1000000000E+01  0.4698893521E-01  0.1172521967E+01 -0.3920923566E-17 -0.6997241404E-01  0.6277766036E+15  0.1175706718E+01 -0.3898652212E-17 -0.6706087153E-01
  0.9429536967E+00  0.1000000000E+01  0.4698893521E-01  0.6988860218E+00 -0.1371121464E-16 -0.7064663330E-01  0.6277766036E+15  0.7034340538E+00 -0.1384308105E-16 -0.8096876591E-01
  0.8469889352E+00  0.1000000000E+01  0.4698893521E-01  0.6901644392E+00 -0.3225382242E-16 -0.8498989730E-01  0.6277766036E+15  0.6951331070E+00 -0.3246119351E-16 -0.1052123969E+00
  0.8000000000E+00  0.1000000000E+01  0.4698893521E-01  0.2898818951E+00 -0.2710943046E-16 -0.1199792681E-02  0.6277766036E+15  0.2947127400E+00 -0.2716969955E-16 -0.2542279624E-01
  0.1200000000E+01  0.1000000000E+01  0.1429536967E+00  0.3477327280E+01 -0.5766627717E-16 -0.3421502962E+00  0.6277766036E+15  0.3490545879E+01 -0.5790560885E-16 -0.3402341663E+00
  0.1153011065E+01  0.1000000000E+01  0.1429536967E+00  0.2161269948E+01 -0.5869286789E-16 -0.5404611448E+00  0.6277766036E+15  0.2177082347E+01 -0.5792426669E-16 -0.5428733120E+00
  0.1057046303E+01  0.1000000000E+01  0.1429536967E+00  0.2166961485E+01 -0.2611279940E-16 -0.3240405741E+00  0.6277766036E+15  0.2184536431E+01 -0.2619514746E-16 -0.3380531705E+00
  0.9429536967E+00  0.1000000000E+01  0.1429536967E+00  0.1288110592E+01 -0.2628406075E-16 -0.5098107286E+00  0.6277766036E+15  0.1305152569E+01 -0.2632456166E-16 -0.5365463769E+00
  0.8469889352E+00  0.1000000000E+01  0.1429536967E+00  0.1259330816E+01 -0.4689766129E-16 -0.2658041079E+00  0.6277766036E+15  0.1274575671E+01 -0.4708415745E-16 -0.3011936122E+00
  0.8000000000E+00  0.1000000000E+01  0.1429536967E+00  0.5942379512E+00 -0.5369370449E-16 -0.2951231813E+00  0.6277766036E+15  0.6064515770E+00 -0.5340660910E-16 -0.3333932865E+00
  0.1200000000E+01  0.1000000000E+01  0.2570463033E+00  0.2382357981E+01 -0.2322265463E-16 -0.8911433261E+00  0.6277766036E+15  0.2398680889E+01 -0.2319529525E-16 -0.9180185284E+00
  0.1153011065E+01  0.1000000000E+01  0.2570463033E+00  0.2058995854E+01 -0.6071378760E-16 -0.1141434567E+01  0.6277766036E+15  0.2081208124E+01 -0.6321544180E-16 -0.1169204254E+01
  0.1057046303E+01  0.1000000000E+01  0.2570463033E+00  0.1732026287E+01 -0.3566430521E-16 -0.7625366447E+00  0.6277766036E+15  0.1757094982E+01 -0.3564204041E-16 -0.7900186467E+00
  0.9429536967E+00  0.1000000000E+01  0.2570463033E+00  0.1279686171E+01 -0.3147404881E-16 -0.9852030761E+00  0.6277766036E+15  0.1302593105E+01 -0.3262508827E-16 -0.1012571473E+01
  0.8469889352E+00  0.1000000000E+01  0.2570463033E+00  0.1123745867E+01 -0.5074500237E-17 -0.5633503588E+00  0.6277766036E+15  0.1142199892E+01 -0.4867988778E-17 -0.5897252239E+00
  0.8000000000E+00  0.1000000000E+01  0.2570463033E+00  0.8475348688E+00 -0.4550556719E-17 -0.5848765479E+00  0.6277766036E+15  0.8617132732E+00 -0.4553050447E-17 -0.6100273628E+00
  0.1200000000E+01  0.1000000000E+01  0.3530110648E+00  0.2006671311E+01 -0.2647180496E-17 -0.1503018956E+01  0.6277766036E+15  0.2025051315E+01 -0.2622426344E-17 -0.1531840672E+01
  0.1153011065E+01  0.1000000000E+01  0.3530110648E+00  0.1527530065E+01 -0.1806628424E-16 -0.1445806667E+01  0.6277766036E+15  0.1548243046E+01 -0.1831680314E-16 -0.1474501048E+01
  0.1057046303E+01  0.1000000000E+01  0.3530110648E+00  0.1304501770E+01 -0.2044261830E-16 -0.1127453300E+01  0.6277766036E+15  0.1326899901E+01 -0.2013583895E-16 -0.1152860251E+01
  0.9429536967E+00  0.1000000000E+01  0.3530110648E+00  0.8955511407E+00 -0.2087979697E-16 -0.1156392088E+01  0.6277766036E+15  0.9174995015E+00 -0.2138483207E-16 -0.1178683631E+01
  0.8469889352E+00  0.1000000000E+01  0.3530110648E+00  0.8600942765E+00  0.2535209378E-17 -0.8065709231E+00  0.6277766036E+15  0.8778948037E+00  0.3185141781E-17 -0.8297577209E+00
  0.8000000000E+00  0.1000000000E+01  0.3530110648E+00  0.5600199284E+00  0.6735750662E-17 -0.7406529004E+00  0.6277766036E+15  0.5733762789E+00  0.6711673650E-17 -0.7644010045E+00
  0.1200000000E+01  0.1000000000E+01  0.4000000000E+00  0.1566787818E+01 -0.7485041383E-17 -0.1576840682E+01  0.6277766036E+15  0.1585307896E+01 -0.7469980145E-17 -0.1605354268E+01
  0.1153011065E+01  0.1000000000E+01  0.4000000000E+00  0.1440817147E+01 -0.7771581145E-17 -0.1706254517E+01  0.6277766036E+15  0.1461008012E+01 -0.7293727450E-17 -0.1735268925E+01
  0.1057046303E+01  0.1000000000E+01  0.4000000000E+00  0.1073086444E+01 -0.1425485392E-16 -0.1275476773E+01  0.6277766036E+15  0.1093736060E+01 -0.1416789445E-16 -0.1303973324E+01
  0.9429536967E+00  0.1000000000E+01  0.4000000000E+00  0.7808554703E+00 -0.2405238722E-16 -0.1279546619E+01  0.6277766036E+15  0.8030680616E+00 -0.2455972357E-16 -0.1306630326E+01
  0.8469889352E+00  0.1000000000E+01  0.4000000000E+00  0.6459075498E+00 -0.1287771776E-16 -0.8608008310E+00  0.6277766036E+15  0.6658133221E+00 -0.1267528351E-16 -0.8923525076E+00
  0.8000000000E+00  0.1000000000E+01  0.4000000000E+00  0.5494709393E+00 -0.6426564135E-17 -0.8323137347E+00  0.6277766036E+15  0.5622238491E+00 -0.6437294771E-17 -0.8651907018E+00
ZONE I=6, J=6, K=1, F=POINT
  0.1600000000E+01  0.1000000000E+01  0.0000000000E+00  0.1336691603E+00 -0.8893826626E-18 -0.7374195648E-01  0.6277766036E+15  0.1314428117E+00 -0.9956856846E-18 -0.7387534200E-01
  0.1553011065E+01  0.1000000000E+01  0.0000000000E+00  0.1044212534E-01 -0.1487816078E-17  0.4529053603E-01  0.6277766036E+15  0.8504235026E-02 -0.1420983815E-17  0.4501609823E-01
  0.1457046303E+01  0.1000000000E+01  0.0000000000E+00 -0.8471436405E-02 -0.4653329562E-19 -0.3072655698E-02  0.6277766036E+15 -0.9946201865E-02 -0.2399470788E-19 -0.3116161058E-02
  0.1342953697E+01  0.1000000000E+01  0.0000000000E+00  0.4093402843E-02  0.3897189826E-18  0.3014304841E-01  0.6277766036E+15  0.3177138853E-02  0.3399369237E-18  0.3001392773E-01
  0.1246988935E+01  0.1000000000E+01  0.0000000000E+00 -0.9346840259E-02  0.1075232092E-18 -0.7673548117E-02  0.6277766036E+15 -0.9754695005E-02  0.1045248178E-18 -0.7692025753E-02
  0.1200000000E+01  0.1000000000E+01  0.0000000000E+00  0.5894957790E-01  0.1036516912E-18  0.3643348846E-01  0.6277766036E+15  0.5877697725E-01  0.1053704534E-18  0.3677714160E-01
  0.1600000000E+01  0.1000000000E+01  0.4698893521E-01  0.2386497814E+01 -0.7890404113E-16  0.2079059200E+00  0.6277766036E+15  0.2381793686E+01 -0.7881840061E-16  0.2466795610E+00
  0.1553011065E+01  0.1000000000E+01  0.4698893521E-01  0.2933469332E+01 -0.3379664241E-16 -0.3025520870E+00  0.6277766036E+15  0.2931371326E+01 -0.3395194999E-16 -0.2656018082E+00
  0.1457046303E+01  0.1000000000E+01  0.4698893521E-01  0.1917848787E+01 -0.4574791993E-17 -0.1045994452E+00  0.6277766036E+15  0.1916118319E+01 -0.4466186906E-17 -0.7393023282E-01
  0.1342953697E+01  0.1000000000E+01  0.4698893521E-01  0.1952990520E+01  0.3170099594E-16 -0.6717153092E-01  0.6277766036E+15  0.1950736814E+01  0.3170076612E-16 -0.4085483137E-01
  0.1246988935E+01  0.1000000000E+01  0.4698893521E-01  0.1428793297E+01 -0.5475263092E-17 -0.7378220255E-02  0.6277766036E+15  0.1428151330E+01 -0.5522863039E-17  0.1511982340E-01
  0.1200000000E+01  0.1000000000E+01  0.4698893521E-01  0.1913675263E+01 -0.4839133968E-16 -0.1894015537E+00  0.6277766036E+15  0.1913067374E+01 -0.4838383220E-16 -0.1698252316E+00
  0.1600000000E+01  0.1000000000E+01  0.1429536967E+00  0.3561649616E+01 -0.2586986206E-15 -0.1850258112E+01  0.6277766036E+15  0.3549851177E+01 -0.2588365965E-15 -0.1843146004E+01
  0.1553011065E+01  0.1000000000E+01  0.1429536967E+00  0.5408178172E+01 -0.1609411600E-15 -0.9252174352E+00  0.6277766036E+15  0.5411584876E+01 -0.1611355021E-15 -0.9180444698E+00
  0.1457046303E+01  0.1000000000E+01  0.1429536967E+00  0.3498852821E+01  0.3610103428E-16 -0.8872352610E+00  0.6277766036E+15  0.3503077617E+01  0.3608290336E-16 -0.8798259067E+00
  0.1342953697E+01  0.1000000000E+01  0.1429536967E+00  0.3760374918E+01  0.1103892187E-15 -0.7245526008E-01  0.6277766036E+15  0.3761277789E+01  0.1104044703E-15 -0.6560885654E-01
  0.1246988935E+01  0.1000000000E+01  0.1429536967E+00  0.2687904425E+01  0.2634976929E-16 -0.4881045003E+00  0.6277766036E+15  0.2694314728E+01  0.2606001719E-16 -0.4828717416E+00
  0.1200000000E+01  0.1000000000E+01  0.1429536967E+00  0.3646835804E+01 -0.6200664415E-16 -0.3373973751E+00  0.6277766036E+15  0.3653653219E+01 -0.6215670922E-16 -0.3358597600E+00
  0.1600000000E+01  0.1000000000E+01  0.2570463033E+00  0.6308468026E+01  0.3327141794E-16 -0.3559065996E+01  0.6277766036E+15  0.6309956773E+01  0.3326958985E-16 -0.3593513812E+01
  0.1553011065E+01  0.1000000000E+01  0.2570463033E+00  0.5400931111E+01  0.5032619418E-16 -0.2207107958E+01  0.6277766036E+15  0.5402122805E+01  0.4990676642E-16 -0.2236205629E+01
  0.1457046303E+01  0.1000000000E+01  0.2570463033E+00  0.4372677203E+01  0.1553544994E-15 -0.1963288605E+01  0.6277766036E+15  0.4375029553E+01  0.1552712940E-15 -0.1986222296E+01
  0.1342953697E+01  0.1000000000E+01  0.2570463033E+00  0.3331353226E+01  0.1300074683E-15 -0.6116947296E+00  0.6277766036E+15  0.3335020775E+01  0.1301062867E-15 -0.6344883270E+00
  0.1246988935E+01  0.1000000000E+01  0.2570463033E+00  0.2558743648E+01  0.3232859088E-16 -0.1145027266E+01  0.6277766036E+15  0.2568887790E+01  0.3242841487E-16 -0.1170700581E+01
  0.1200000000E+01  0.1000000000E+01  0.2570463033E+00  0.2429303972E+01 -0.2361123837E-16 -0.8841888351E+00  0.6277766036E+15  0.2446275523E+01 -0.2360378149E-16 -0.9122755380E+00
  0.1600000000E+01  0.1000000000E+01  0.3530110648E+00  0.4141160880E+01  0.6042755724E-16 -0.3974744795E+01  0.6277766036E+15  0.4138752946E+01  0.6051623517E-16 -0.3989618528E+01
  0.1553011065E+01  0.1000000000E+01  0.3530110648E+00  0.4378575509E+01  0.7710678162E-16 -0.3474507550E+01  0.6277766036E+15  0.4376342321E+01  0.7712182058E-16 -0.3490727257E+01
  0.1457046303E+01  0.1000000000E+01  0.3530110648E+00  0.3491333812E+01  0.1172187964E-15 -0.2701440954E+01  0.6277766036E+15  0.3492813342E+01  0.1173578279E-15 -0.2718228269E+01
  0.1342953697E+01  0.1000000000E+01  0.3530110648E+00  0.2818032736E+01  0.1075285714E-15 -0.1609323473E+01  0.6277766036E+15  0.2826513447E+01  0.1079290346E-15 -0.1630112667E+01
  0.1246988935E+01  0.1000000000E+01  0.3530110648E+00  0.1918162185E+01  0.2865751416E-16 -0.1582834746E+01  0.6277766036E+15  0.1932761408E+01  0.2856629150E-16 -0.1609901869E+01
  0.1200000000E+01  0.1000000000E+01  0.3530110648E+00  0.2086462554E+01 -0.2618378500E-17 -0.1503706881E+01  0.6277766036E+15  0.2102966118E+01 -0.2609575867E-17 -0.1532197840E+01
  0.1600000000E+01  0.1000000000E+01  0.4000000000E+00  0.4262824918E+01  0.3305093925E-16 -0.4763209176E+01  0.6277766036E+15  0.4261221380E+01  0.3307295771E-16 -0.4786510984E+01
  0.1553011065E+01  0.1000000000E+01  0.4000000000E+00  0.3626522330E+01  0.6442037401E-16 -0.3437337117E+01  0.6277766036E+15  0.3626212227E+01  0.6464450851E-16 -0.3461923805E+01
  0.1457046303E+01  0.1000000000E+01  0.4000000000E+00  0.3256415367E+01  0.7789542875E-16 -0.3038718290E+01  0.6277766036E+15  0.3258165427E+01  0.7788221340E-16 -0.3063372072E+01
  0.1342953697E+01  0.1000000000E+01  0.4000000000E+00  0.2415649913E+01  0.9405142760E-16 -0.1770904142E+01  0.6277766036E+15  0.2426643789E+01  0.9433682135E-16 -0.1797829563E+01
  0.1246988935E+01  0.1000000000E+01  0.4000000000E+00  0.1869265046E+01  0.1583139190E-16 -0.1909652213E+01  0.6277766036E+15  0.1885304032E+01  0.1580456027E-16 -0.1937521993E+01
  0.1200000000E+01  0.1000000000E+01  0.4000000000E+00  0.1548527680E+01 -0.7238610764E-17 -0.1567770277E+01  0.6277766036E+15  0.1566649687E+01 -0.7231501139E-17 -0.1597244868E+01
ZONE I=6, J=6, K=1, F=POINT
  0.2000000000E+01  0.1000000000E+01  0.0000000000E+00  0.2398639397E+01  0.6076015979E-19  0.2123063136E+02  0.6277766036E+15  0.2425947241E+01  0.8779909580E-19  0.2215168265E+02
  0.1953011065E+01  0.1000000000E+01  0.0000000000E+00  0.1294283605E+01 -0.3674695778E-16 -0.1365417952E+00  0.6277766036E+15  0.1295594403E+01 -0.3566487410E-16 -0.1510912318E+00
  0.1857046303E+01  0.1000000000E+01  0.0000000000E+00 -0.3046974165E+00 -0.1873165845E-16  0.1564204845E+00  0.6277766036E+15 -0.3094789885E+00 -0.1951104094E-16  0.1533581793E+00
  0.1742953697E+01  0.1000000000E+01  0.0000000000E+00  0.1350654778E+00  0.3669783034E-18 -0.3960809284E-01  0.6277766036E+15  0.1328668444E+00  0.3073128356E-18 -0.3918679583E-01
  0.1646988935E+01  0.1000000000E+01  0.0000000000E+00 -0.1262143705E+00  0.5050870811E-18  0.6020838378E-01  0.6277766036E+15 -0.1285254056E+00  0.4871574312E-18  0.5913202050E-01
  0.1600000000E+01  0.1000000000E+01  0.0000000000E+00  0.8302871272E-01 -0.9725266948E-18 -0.8550549279E-01  0.6277766036E+15  0.8066276059E-01 -0.1080211619E-17 -0.8426322310E-01
  0.2000000000E+01  0.1000000000E+01  0.4698893521E-01 -0.2058908065E-01  0.7723089766E-18  0.4848483522E+02  0.6277766036E+15 -0.6405512098E-01  0.6868995666E-18  0.4865651200E+02
  0.1953011065E+01  0.1000000000E+01  0.4698893521E-01  0.1103113404E+02  0.1584135185E-15  0.1539537788E+01  0.6277766036E+15  0.1100924685E+02  0.1571388143E-15  0.1555910447E+01
  0.1857046303E+01  0.1000000000E+01  0.4698893521E-01  0.1166696121E+02  0.3483078101E-15 -0.1946803533E+01  0.6277766036E+15  0.1165919164E+02  0.3477711174E-15 -0.1928489740E+01
  0.1742953697E+01  0.1000000000E+01  0.4698893521E-01  0.5388513082E+01  0.1633840538E-16 -0.7189776330E+00  0.6277766036E+15  0.5386722160E+01  0.1669156592E-16 -0.6932269514E+00
  0.1646988935E+01  0.1000000000E+01  0.4698893521E-01  0.3957217150E+01 -0.1086150736E-15 -0.6779597097E+00  0.6277766036E+15  0.3949343990E+01 -0.1084092706E-15 -0.6397242496E+00
  0.1600000000E+01  0.1000000000E+01  0.4698893521E-01  0.2208232212E+01 -0.7559011522E-16  0.1940162581E+00  0.6277766036E+15  0.2212783135E+01 -0.7530766754E-16  0.2276024712E+00
  0.2000000000E+01  0.1000000000E+01  0.1429536967E+00 -0.2845190794E+00  0.1989049270E-17  0.5050377423E+02  0.6277766036E+15 -0.2629032158E+00  0.1877397532E-17  0.5043711512E+02
  0.1953011065E+01  0.1000000000E+01  0.1429536967E+00  0.2646844002E+01 -0.4575003332E-15  0.1630371927E+02  0.6277766036E+15  0.2614845708E+01 -0.4596254269E-15  0.1633446907E+02
  0.1857046303E+01  0.1000000000E+01  0.1429536967E+00  0.1154154650E+02 -0.2626221559E-15 -0.4406190957E+01  0.6277766036E+15  0.1152285222E+02 -0.2614440729E-15 -0.4401633738E+01
  0.1742953697E+01  0.1000000000E+01  0.1429536967E+00  0.7603920872E+01  0.1256956119E-15 -0.4597481330E+01  0.6277766036E+15  0.7596952266E+01  0.1237840741E-15 -0.4600140576E+01
  0.1646988935E+01  0.1000000000E+01  0.1429536967E+00  0.6689101104E+01 -0.1059593540E-15 -0.2242764175E+01  0.6277766036E+15  0.6676150732E+01 -0.1058348077E-15 -0.2236899992E+01
  0.1600000000E+01  0.1000000000E+01  0.1429536967E+00  0.3189932306E+01 -0.2752627279E-15 -0.1845844573E+01  0.6277766036E+15  0.3208000370E+01 -0.2760183116E-15 -0.1845396491E+01
  0.2000000000E+01  0.1000000000E+01  0.2570463033E+00  0.1169677683E-01  0.9414268233E-18  0.4987056925E+02  0.6277766036E+15  0.1108405641E-01  0.8694902320E-18  0.4987345518E+02