TITLE = "Generated from ../MESH/Convergence_0000000000.hmesh and Convergence_0000007300.hsol"
VARIABLES = "x","y","z","veloT_x","veloT_y","veloT_z","slr_4","velo_x","velo_y","velo_z"
ZONE I=6, J=6, K=1, F=POINT
  0.4000000000E+00  0.1000000000E+01  0.0000000000E+00 -0.1853172925E-01  0.2443331251E-19  0.7156343380E-02  0.7318644250E+15 -0.1447103895E-01  0.2433819045E-19  0.7301920969E-02
  0.3530110648E+00  0.1000000000E+01  0.0000000000E+00 -0.8027008019E-02  0.1052197997E-19 -0.3304882856E-03  0.7318644250E+15 -0.3047156872E-02  0.8212289808E-20 -0.2300073080E-03
  0.2570463033E+00  0.1000000000E+01  0.0000000000E+00 -0.5470375448E-02  0.2067348757E-20  0.2438853217E-02  0.7318644250E+15 -0.8658116964E-03  0.6921070565E-21  0.2433898428E-02
  0.1429536967E+00  0.1000000000E+01  0.0000000000E+00 -0.6412765413E-02  0.7019214553E-21 -0.1252143525E-02  0.7318644250E+15 -0.1314989394E-02  0.2837598131E-21 -0.1184129574E-02
  0.4698893521E-01  0.1000000000E+01  0.0000000000E+00 -0.2613665421E-02 -0.3073547449E-20  0.2762846546E-02  0.7318644250E+15  0.1440841935E-02 -0.3075109014E-20  0.2406123076E-02
  0.0000000000E+00  0.1000000000E+01  0.0000000000E+00 -0.8168293400E-02  0.2439504544E-22  0.2678536969E-02  0.7318644250E+15 -0.7807171298E-02  0.2423290418E-22  0.2330565710E-02
  0.4000000000E+00  0.1000000000E+01  0.4698893521E-01  0.2585214052E+00  0.3515589737E-17 -0.8814018182E-01  0.7318644250E+15  0.2588375792E+00  0.3513471185E-17 -0.4283774555E-01
  0.3530110648E+00  0.1000000000E+01  0.4698893521E-01  0.1127100169E+00  0.3329000788E-17 -0.4333533707E-01  0.7318644250E+15  0.1175987313E+00  0.3228039696E-17 -0.3219391436E-02
  0.2570463033E+00  0.1000000000E+01  0.4698893521E-01  0.8094883827E-01  0.1333238481E-17 -0.3909505251E-01  0.7318644250E+15  0.8698842407E-01  0.1364338654E-17 -0.1274727941E-01
  0.1429536967E+00  0.1000000000E+01  0.4698893521E-01 -0.1677876701E-01  0.3702698720E-18 -0.1223176920E-01  0.7318644250E+15 -0.9526824912E-02  0.3984288644E-18  0.5452724168E-03
  0.4698893521E-01  0.1000000000E+01  0.4698893521E-01 -0.1635924546E-01  0.8954981024E-19  0.1986952602E-02  0.7318644250E+15 -0.1032022717E-01  0.9260694616E-19  0.2180478672E-02
  0.0000000000E+00  0.1000000000E+01  0.4698893521E-01 -0.1879884462E-01  0.1204799599E-20  0.6721976573E-02  0.7318644250E+15 -0.1848216112E-01  0.1134483514E-20  0.2750152024E-02
  0.4000000000E+00  0.1000000000E+01  0.1429536967E+00  0.6103938751E+00  0.1034228012E-16 -0.2010209234E+00  0.7318644250E+15  0.6191350058E+00  0.1048091703E-16 -0.1457476202E+00
  0.3530110648E+00  0.1000000000E+01  0.1429536967E+00  0.3334280147E+00  0.7337010486E-17 -0.2277870935E+00  0.7318644250E+15  0.3540569598E+00  0.6988723310E-17 -0.1782182243E+00
  0.2570463033E+00  0.1000000000E+01  0.1429536967E+00  0.2110200001E+00  0.3124538291E-17 -0.1425312395E+00  0.7318644250E+15  0.2317213761E+00  0.3152891119E-17 -0.1074154946E+00
  0.1429536967E+00  0.1000000000E+01  0.1429536967E+00 -0.9801820275E-03  0.1306441060E-17 -0.1207244549E+00  0.7318644250E+15  0.2215179255E-01  0.1316681535E-17 -0.1037695227E+00
  0.4698893521E-01  0.1000000000E+01  0.1429536967E+00 -0.3050529506E-01  0.3072343939E-18  0.3393833677E-02  0.7318644250E+15 -0.1063735316E-01  0.3062014118E-18  0.2850959884E-02
  0.0000000000E+00  0.1000000000E+01  0.1429536967E+00 -0.2127528840E-01  0.1342066844E-20  0.3559603666E-02  0.7318644250E+15 -0.2133163791E-01  0.1076184985E-20 -0.1249854190E-02
  0.4000000000E+00  0.1000000000E+01  0.2570463033E+00  0.7518085663E+00  0.5336576172E-17 -0.5118604301E+00  0.7318644250E+15  0.7649675462E+00  0.5345849605E-17 -0.4663926840E+00
  0.3530110648E+00  0.1000000000E+01  0.2570463033E+00  0.5421832233E+00  0.3628025221E-17 -0.5327960742E+00  0.7318644250E+15  0.5735152855E+00  0.4260416031E-17 -0.4890074061E+00
  0.2570463033E+00  0.1000000000E+01  0.2570463033E+00  0.2984226989E+00  0.3064524345E-17 -0.3645042831E+00  0.7318644250E+15  0.3341490967E+00  0.3056148032E-17 -0.3303352834E+00
  0.1429536967E+00  0.1000000000E+01  0.2570463033E+00  0.4078078020E-01  0.2088482329E-17 -0.2996478706E+00  0.7318644250E+15  0.8513114069E-01  0.2081550392E-17 -0.2848540800E+00
  0.4698893521E-01  0.1000000000E+01  0.2570463033E+00 -0.2616025184E-01  0.1384909978E-17 -0.4014328590E-01  0.7318644250E+15  0.1012735276E-01  0.1331483256E-17 -0.4415961693E-01
  0.0000000000E+00  0.1000000000E+01  0.2570463033E+00 -0.1418431894E-01 -0.6216138006E-20  0.2020704420E-02  0.7318644250E+15 -0.1405668037E-01 -0.5211891765E-20 -0.2884115838E-02
  0.4000000000E+00  0.1000000000E+01  0.3530110648E+00  0.8174153490E+00  0.5646538971E-17 -0.8574564607E+00  0.7318644250E+15  0.8368214703E+00  0.5619410668E-17 -0.7832062701E+00
  0.3530110648E+00  0.1000000000E+01  0.3530110648E+00  0.5977900269E+00  0.4900051241E-17 -0.8314394668E+00  0.7318644250E+15  0.6395497936E+00  0.4915748692E-17 -0.7663300857E+00
  0.2570463033E+00  0.1000000000E+01  0.3530110648E+00  0.3235606328E+00  0.3085087699E-17 -0.6153093104E+00  0.7318644250E+15  0.3752822886E+00  0.2422891894E-17 -0.5692812906E+00
  0.1429536967E+00  0.1000000000E+01  0.3530110648E+00  0.3532695949E-01  0.2421046923E-17 -0.4581855347E+00  0.7318644250E+15  0.1027930336E+00  0.2272561642E-17 -0.4403258231E+00
  0.4698893521E-01  0.1000000000E+01  0.3530110648E+00 -0.3148812923E-01  0.6142537916E-18 -0.1054805719E+00  0.7318644250E+15  0.2143748821E-01  0.6823094619E-18 -0.1129182526E+00
  0.0000000000E+00  0.1000000000E+01  0.3530110648E+00 -0.1406934147E-01  0.4886070852E-20  0.1127388835E-02  0.7318644250E+15 -0.1420974418E-01  0.5763638516E-20 -0.4796033669E-02
  0.4000000000E+00  0.1000000000E+01  0.4000000000E+00  0.8142075170E+00  0.7242336259E-17 -0.1031127272E+01  0.7318644250E+15  0.8491673075E+00  0.7220916202E-17 -0.9342878516E+00
  0.3530110648E+00  0.1000000000E+01  0.4000000000E+00  0.6427114139E+00  0.6379856594E-17 -0.9929813966E+00  0.7318644250E+15  0.6972016761E+00  0.6196212702E-17 -0.9167305842E+00
  0.2570463033E+00  0.1000000000E+01  0.4000000000E+00  0.3311764881E+00  0.2459622458E-17 -0.7459972438E+00  0.7318644250E+15  0.3937836591E+00  0.2714757869E-17 -0.6962830352E+00
  0.1429536967E+00  0.1000000000E+01  0.4000000000E+00  0.4027653367E-01  0.2400247284E-17 -0.5458679029E+00  0.7318644250E+15  0.1216589820E+00  0.2555518991E-17 -0.5274999915E+00
  0.4698893521E-01  0.1000000000E+01  0.4000000000E+00 -0.3868179251E-01  0.6260399129E-18 -0.1427388512E+00  0.7318644250E+15  0.2325107266E-01  0.6596536322E-18 -0.1498600852E+00
  0.0000000000E+00  0.1000000000E+01  0.4000000000E+00 -0.6433937960E-02  0.9584145943E-20 -0.1385613247E-02  0.7318644250E+15 -0.6999860837E-02  0.8735301371E-20 -0.6311304530E-02
ZONE I=6, J=6, K=1, F=POINT
  0.8000000000E+00  0.1000000000E+01  0.0000000000E+00  0.5611344097E-02 -0.8596624336E-19 -0.1149597475E-01  0.7318644250E+15  0.7907736730E-02 -0.9427523941E-19 -0.1127622097E-01
  0.7530110648E+00  0.1000000000E+01  0.0000000000E+00 -0.9424475700E-02 -0.1749182764E-18  0.6098897317E-02  0.7318644250E+15 -0.6889875919E-02 -0.1319158949E-18  0.6170049033E-02
  0.6570463033E+00  0.1000000000E+01  0.0000000000E+00 -0.1094150682E-01 -0.1134229305E-18  0.3813529358E-03  0.7318644250E+15 -0.7561600606E-02 -0.6869896528E-19  0.4397723661E-03
  0.5429536967E+00  0.1000000000E+01  0.0000000000E+00 -0.8235211126E-02 -0.2066963232E-18  0.7353376812E-02  0.7318644250E+15 -0.4514050299E-02 -0.1102018599E-18  0.7327251728E-02
  0.4469889352E+00  0.1000000000E+01  0.0000000000E+00 -0.9505635627E-02 -0.2682769936E-18  0.8169182935E-03  0.7318644250E+15 -0.5905289218E-02 -0.1589527364E-18  0.8308348056E-03
  0.4000000000E+00  0.1000000000E+01  0.0000000000E+00  0.7891286726E-02  0.2827578686E-19  0.6851128641E-02  0.7318644250E+15  0.1180086081E-01  0.2804975467E-19  0.6986211431E-02
  0.8000000000E+00  0.1000000000E+01  0.4698893521E-01  0.3964534943E+00 -0.2242087154E-16 -0.5459438309E-01  0.7318644250E+15  0.3793056939E+00 -0.2220085020E-16 -0.4609649970E-02
  0.7530110648E+00  0.1000000000E+01  0.4698893521E-01  0.5809733243E+00 -0.2108815638E-16 -0.1132077959E+00  0.7318644250E+15  0.5667855300E+00 -0.2035127768E-16 -0.6239144927E-01
  0.6570463033E+00  0.1000000000E+01  0.4698893521E-01  0.3403569949E+00 -0.4073375364E-17 -0.8175065353E-01  0.7318644250E+15  0.3310560457E+00 -0.4109416740E-17 -0.3233448067E-01
  0.5429536967E+00  0.1000000000E+01  0.4698893521E-01  0.3474880021E+00  0.4504085509E-17 -0.6965473318E-01  0.7318644250E+15  0.3410249646E+00  0.4424356165E-17 -0.2172299600E-01
  0.4469889352E+00  0.1000000000E+01  0.4698893521E-01  0.2021451506E+00  0.4540625666E-17 -0.5185651259E-01  0.7318644250E+15  0.1985642260E+00  0.4521132396E-17 -0.4244649186E-02
  0.4000000000E+00  0.1000000000E+01  0.4698893521E-01  0.3006015041E+00  0.3275299814E-17 -0.8891287820E-01  0.7318644250E+15  0.3006916324E+00  0.3275230560E-17 -0.4359005059E-01
  0.8000000000E+00  0.1000000000E+01  0.1429536967E+00  0.1307995247E+01 -0.5112879376E-16 -0.4921672525E+00  0.7318644250E+15  0.1286269707E+01 -0.5168419734E-16 -0.4269705141E+00
  0.7530110648E+00  0.1000000000E+01  0.1429536967E+00  0.1568553220E+01 -0.3034256632E-16 -0.3455796820E+00  0.7318644250E+15  0.1553337909E+01 -0.3068051462E-16 -0.2795303629E+00
  0.6570463033E+00  0.1000000000E+01  0.1429536967E+00  0.1060743522E+01 -0.6900490370E-18 -0.3307680909E+00  0.7318644250E+15  0.1054178110E+01 -0.3874293965E-18 -0.2668336638E+00
  0.5429536967E+00  0.1000000000E+01  0.1429536967E+00  0.9193404630E+00  0.1033408917E-16 -0.1668557391E+00  0.7318644250E+15  0.9141753458E+00  0.1022481407E-16 -0.1079499490E+00
  0.4469889352E+00  0.1000000000E+01  0.1429536967E+00  0.5630306436E+00  0.1132664727E-16 -0.2331686631E+00  0.7318644250E+15  0.5619693861E+00  0.1105093249E-16 -0.1760148892E+00
  0.4000000000E+00  0.1000000000E+01  0.1429536967E+00  0.6616948251E+00  0.1104668877E-16 -0.2004818274E+00  0.7318644250E+15  0.6702450857E+00  0.1117948746E-16 -0.1452036444E+00
  0.8000000000E+00  0.1000000000E+01  0.2570463033E+00  0.2544193896E+01 -0.9039985863E-17 -0.1156864284E+01  0.7318644250E+15  0.2522092841E+01 -0.9120050919E-17 -0.1079870889E+01
  0.7530110648E+00  0.1000000000E+01  0.2570463033E+00  0.2353659684E+01 -0.6648529935E-17 -0.8973443090E+00  0.7318644250E+15  0.2342105386E+01 -0.5512275821E-17 -0.8218236065E+00
  0.6570463033E+00  0.1000000000E+01  0.2570463033E+00  0.1766444798E+01  0.1968729868E-18 -0.8186285708E+00  0.7318644250E+15  0.1771303310E+01  0.4699455778E-19 -0.7550892555E+00
  0.5429536967E+00  0.1000000000E+01  0.2570463033E+00  0.1296222146E+01  0.4346206643E-17 -0.5305085867E+00  0.7318644250E+15  0.1297557077E+01  0.4360092400E-17 -0.4825324638E+00
  0.4469889352E+00  0.1000000000E+01  0.2570463033E+00  0.8701101995E+00  0.4763348400E-17 -0.5870752373E+00  0.7318644250E+15  0.8686309415E+00  0.5353359502E-17 -0.5418166099E+00
  0.4000000000E+00  0.1000000000E+01  0.2570463033E+00  0.7826155080E+00  0.5357067062E-17 -0.5112009071E+00  0.7318644250E+15  0.7953910020E+00  0.5366166684E-17 -0.4657810840E+00
  0.8000000000E+00  0.1000000000E+01  0.3530110648E+00  0.2946105331E+01  0.4483079466E-17 -0.1778583345E+01  0.7318644250E+15  0.2920027817E+01  0.4466983172E-17 -0.1664060491E+01
  0.7530110648E+00  0.1000000000E+01  0.3530110648E+00  0.2758804884E+01  0.7213120152E-17 -0.1549288795E+01  0.7318644250E+15  0.2752046675E+01  0.6882064948E-17 -0.1431143598E+01
  0.6570463033E+00  0.1000000000E+01  0.3530110648E+00  0.2106845955E+01  0.3472908252E-17 -0.1351755326E+01  0.7318644250E+15  0.2125448462E+01  0.1164499628E-17 -0.1234731864E+01
  0.5429536967E+00  0.1000000000E+01  0.3530110648E+00  0.1494715977E+01  0.4972915097E-17 -0.1015089423E+01  0.7318644250E+15  0.1507590589E+01  0.3248359207E-17 -0.9092902858E+00
  0.4469889352E+00  0.1000000000E+01  0.3530110648E+00  0.9225966465E+00  0.5793777314E-17 -0.9567849918E+00  0.7318644250E+15  0.9284163754E+00  0.5046871044E-17 -0.8716954900E+00
  0.4000000000E+00  0.1000000000E+01  0.3530110648E+00  0.8512594812E+00  0.5627902982E-17 -0.8573202926E+00  0.7318644250E+15  0.8702319905E+00  0.5609517024E-17 -0.7830533366E+00
  0.8000000000E+00  0.1000000000E+01  0.4000000000E+00  0.3122084527E+01 -0.3115044215E-17 -0.2116961936E+01  0.7318644250E+15  0.3086426938E+01 -0.3105309804E-17 -0.1997358973E+01
  0.7530110648E+00  0.1000000000E+01  0.4000000000E+00  0.2792205723E+01  0.2335708663E-18 -0.1827962422E+01  0.7318644250E+15  0.2778829362E+01 -0.2513930351E-18 -0.1695086951E+01
  0.6570463033E+00  0.1000000000E+01  0.4000000000E+00  0.2188643687E+01  0.1045557932E-17 -0.1617054346E+01  0.7318644250E+15  0.2202675243E+01  0.1883014541E-17 -0.1454379079E+01
  0.5429536967E+00  0.1000000000E+01  0.4000000000E+00  0.1514840976E+01  0.5620648113E-17 -0.1280851581E+01  0.7318644250E+15  0.1536884101E+01  0.7788141532E-17 -0.1110335844E+01
  0.4469889352E+00  0.1000000000E+01  0.4000000000E+00  0.9733114993E+00  0.5331090987E-17 -0.1155618079E+01  0.7318644250E+15  0.9990804243E+00  0.5234259324E-17 -0.1031197833E+01
  0.4000000000E+00  0.1000000000E+01  0.4000000000E+00  0.8263941455E+00  0.7272543484E-17 -0.1030460825E+01  0.7318644250E+15  0.8604890045E+00  0.7257527780E-17 -0.9337001855E+00
ZONE I=6, J=6, K=1, F=POINT
  0.1200000000E+01  0.1000000000E+01  0.0000000000E+00 -0.4487859242E-01  0.5713562200E-19  0.3663774614E-01  0.7318644250E+15 -0.4750748337E-01  0.5325990889E-19  0.3678905932E-01
  0.1153011065E+01  0.1000000000E+01  0.0000000000E+00 -0.1852850874E-01 -0.8116671633E-18 -0.9697878944E-02  0.7318644250E+15 -0.2062530411E-01 -0.9589968994E-18 -0.9475246303E-02
  0.1057046303E+01  0.1000000000E+01  0.0000000000E+00 -0.1133068992E-01 -0.3285861881E-18  0.5940794061E-02  0.7318644250E+15 -0.1215969968E-01 -0.3498701665E-18  0.6077806540E-02
  0.9429536967E+00  0.1000000000E+01  0.0000000000E+00 -0.1555146258E-01  0.3014736560E-20 -0.8326151332E-02  0.7318644250E+15 -0.1469103291E-01 -0.1037878906E-19 -0.8178722817E-02
  0.8469889352E+00  0.1000000000E+01  0.0000000000E+00 -0.9696281428E-02 -0.1655625638E-19  0.5566877730E-02  0.7318644250E+15 -0.7541835294E-02 -0.2362517485E-19  0.5644934966E-02
  0.8000000000E+00  0.1000000000E+01  0.0000000000E+00 -0.3960842229E-01 -0.9617355983E-19 -0.1095829058E-01  0.7318644250E+15 -0.3731392492E-01 -0.1051003707E-18 -0.1074507311E-01
  0.1200000000E+01  0.1000000000E+01  0.4698893521E-01  0.2348759337E+01 -0.4187834083E-16 -0.2539411945E+00  0.7318644250E+15  0.2315187119E+01 -0.4037412871E-16 -0.2456669692E+00
  0.1153011065E+01  0.1000000000E+01  0.4698893521E-01  0.1649944440E+01 -0.2546738695E-16 -0.1111091594E+00  0.7318644250E+15  0.1615700172E+01 -0.2442161428E-16 -0.9714383454E-01
  0.1057046303E+01  0.1000000000E+01  0.4698893521E-01  0.1495086508E+01 -0.1151758207E-16 -0.1505095091E+00  0.7318644250E+15  0.1463960242E+01 -0.1184857622E-16 -0.1245453323E+00
  0.9429536967E+00  0.1000000000E+01  0.4698893521E-01  0.8593352568E+00 -0.1332298589E-16 -0.1422351977E+00  0.7318644250E+15  0.8339328227E+00 -0.1259886024E-16 -0.1027993242E+00
  0.8469889352E+00  0.1000000000E+01  0.4698893521E-01  0.7359098552E+00 -0.2590459118E-16 -0.1410089026E+00  0.7318644250E+15  0.7157500991E+00 -0.2505302994E-16 -0.9338532154E-01
  0.8000000000E+00  0.1000000000E+01  0.4698893521E-01  0.3355892319E+00 -0.2172349021E-16 -0.5250849493E-01  0.7318644250E+15  0.3185787318E+00 -0.2150222759E-16 -0.2597983187E-02
  0.1200000000E+01  0.1000000000E+01  0.1429536967E+00  0.5545032591E+01 -0.5890459079E-16 -0.7020050073E+00  0.7318644250E+15  0.5501603219E+01 -0.5764281141E-16 -0.6972838155E+00
  0.1153011065E+01  0.1000000000E+01  0.1429536967E+00  0.4075707003E+01 -0.6618782052E-16 -0.9233845229E+00  0.7318644250E+15  0.4025515621E+01 -0.6912764644E-16 -0.9098700667E+00
  0.1057046303E+01  0.1000000000E+01  0.1429536967E+00  0.3645793238E+01 -0.3589171031E-16 -0.7332625750E+00  0.7318644250E+15  0.3597391347E+01 -0.3577292259E-16 -0.6987764738E+00
  0.9429536967E+00  0.1000000000E+01  0.1429536967E+00  0.2314716801E+01 -0.3127359917E-16 -0.8593489003E+00  0.7318644250E+15  0.2277020080E+01 -0.3121096237E-16 -0.8045329068E+00
  0.8469889352E+00  0.1000000000E+01  0.1429536967E+00  0.1968511216E+01 -0.4635023464E-16 -0.5113549713E+00  0.7318644250E+15  0.1941905315E+01 -0.4606341246E-16 -0.4480944156E+00
  0.8000000000E+00  0.1000000000E+01  0.1429536967E+00  0.1223809525E+01 -0.5335325828E-16 -0.4937908364E+00  0.7318644250E+15  0.1203952255E+01 -0.5393746908E-16 -0.4285867789E+00
  0.1200000000E+01  0.1000000000E+01  0.2570463033E+00  0.6162384830E+01 -0.9248633930E-17 -0.1826447724E+01  0.7318644250E+15  0.6091452094E+01 -0.9170902072E-17 -0.1825343625E+01
  0.1153011065E+01  0.1000000000E+01  0.2570463033E+00  0.5609760337E+01 -0.4227612426E-16 -0.2109432328E+01  0.7318644250E+15  0.5530031014E+01 -0.3355510138E-16 -0.2095988992E+01
  0.1057046303E+01  0.1000000000E+01  0.2570463033E+00  0.4704353610E+01 -0.2927637456E-16 -0.1772948066E+01  0.7318644250E+15  0.4628110852E+01 -0.2942267667E-16 -0.1728976634E+01
  0.9429536967E+00  0.1000000000E+01  0.2570463033E+00  0.3616154079E+01 -0.2695017590E-16 -0.1854044908E+01  0.7318644250E+15  0.3563990976E+01 -0.2417204206E-16 -0.1785478071E+01
  0.8469889352E+00  0.1000000000E+01  0.2570463033E+00  0.2959647962E+01 -0.1192258202E-16 -0.1229945562E+01  0.7318644250E+15  0.2929553436E+01 -0.1191591595E-16 -0.1153610495E+01
  0.8000000000E+00  0.1000000000E+01  0.2570463033E+00  0.2505768200E+01 -0.9225350317E-17 -0.1159547400E+01  0.7318644250E+15  0.2484672879E+01 -0.9252714933E-17 -0.1082095968E+01
  0.1200000000E+01  0.1000000000E+01  0.3530110648E+00  0.6729020518E+01  0.2520469991E-16 -0.3004274236E+01  0.7318644250E+15  0.6634359266E+01  0.2525781079E-16 -0.2999631172E+01
  0.1153011065E+01  0.1000000000E+01  0.3530110648E+00  0.5984321450E+01  0.7604778384E-17 -0.2986194069E+01  0.7318644250E+15  0.5871442456E+01  0.9103511399E-17 -0.2966664045E+01
  0.1057046303E+01  0.1000000000E+01  0.3530110648E+00  0.5161071078E+01 -0.8344698936E-17 -0.2701165382E+01  0.7318644250E+15  0.5054127143E+01 -0.8975945916E-17 -0.2648098251E+01
  0.9429536967E+00  0.1000000000E+01  0.3530110648E+00  0.4065158939E+01 -0.1352569370E-16 -0.2547259019E+01  0.7318644250E+15  0.3995094029E+01 -0.1193606649E-16 -0.2460488047E+01
  0.8469889352E+00  0.1000000000E+01  0.3530110648E+00  0.3456629210E+01  0.1869659408E-17 -0.1960317988E+01  0.7318644250E+15  0.3418107480E+01 -0.1887773855E-18 -0.1852901340E+01
  0.8000000000E+00  0.1000000000E+01  0.3530110648E+00  0.2899349828E+01  0.4506532064E-17 -0.1778916517E+01  0.7318644250E+15  0.2874750265E+01  0.4530895845E-17 -0.1664416910E+01
  0.1200000000E+01  0.1000000000E+01  0.4000000000E+00  0.6565535317E+01  0.2735432490E-16 -0.3333825065E+01  0.7318644250E+15  0.6457736610E+01  0.2740122619E-16 -0.3328514764E+01
  0.1153011065E+01  0.1000000000E+01  0.4000000000E+00  0.6181540205E+01  0.2255108383E-16 -0.3508623404E+01  0.7318644250E+15  0.6054596687E+01  0.2048839270E-16 -0.3493792356E+01
  0.1057046303E+01  0.1000000000E+01  0.4000000000E+00  0.5208669062E+01 -0.3623752894E-18 -0.3111739794E+01  0.7318644250E+15  0.5087038070E+01 -0.1281579845E-17 -0.3074018175E+01
  0.9429536967E+00  0.1000000000E+01  0.4000000000E+00  0.4222118391E+01 -0.1547882598E-16 -0.2940966418E+01  0.7318644250E+15  0.4138024287E+01 -0.1325267586E-16 -0.2867652937E+01
  0.8469889352E+00  0.1000000000E+01  0.4000000000E+00  0.3491108194E+01 -0.8145062401E-17 -0.2266116557E+01  0.7318644250E+15  0.3441304207E+01 -0.8874228981E-17 -0.2161040977E+01
  0.8000000000E+00  0.1000000000E+01  0.4000000000E+00  0.3117847043E+01 -0.3102696538E-17 -0.2120557491E+01  0.7318644250E+15  0.3083141595E+01 -0.3079141374E-17 -0.2000445804E+01
ZONE I=6, J=6, K=1, F=POINT
  0.1600000000E+01  0.1000000000E+01  0.0000000000E+00  0.1187072580E+00 -0.9362881034E-18 -0.7131708776E-01  0.7318644250E+15  0.1101799249E+00 -0.1067070198E-17 -0.7055855902E-01
  0.1553011065E+01  0.1000000000E+01  0.0000000000E+00 -0.1255733649E-02 -0.7682603979E-18  0.4529169554E-01  0.7318644250E+15 -0.9147778876E-02 -0.3905815786E-18  0.4527617204E-01
  0.1457046303E+01  0.1000000000E+01  0.0000000000E+00 -0.1925741430E-01  0.1880241363E-18 -0.3318677169E-02  0.7318644250E+15 -0.2565113610E-01  0.3087525137E-18 -0.3077929443E-02
  0.1342953697E+01  0.1000000000E+01  0.0000000000E+00 -0.7117633513E-02 -0.2814806882E-18  0.2967873282E-01  0.7318644250E+15 -0.1136212187E-01 -0.5192402357E-18  0.2979271001E-01
  0.1246988935E+01  0.1000000000E+01  0.0000000000E+00 -0.2054241094E-01  0.4306419718E-19 -0.8382567580E-02  0.7318644250E+15 -0.2338352603E-01  0.6997966108E-19 -0.8141349760E-02
  0.1200000000E+01  0.1000000000E+01  0.0000000000E+00  0.4444846767E-01  0.5923992958E-19  0.3663796916E-01  0.7318644250E+15  0.4219943440E-01  0.5355392172E-19  0.3681734243E-01
  0.1600000000E+01  0.1000000000E+01  0.4698893521E-01  0.2991585669E+01 -0.8792464126E-16  0.1945856393E+00  0.7318644250E+15  0.2945345331E+01 -0.8688351402E-16  0.2110073913E+00
  0.1553011065E+01  0.1000000000E+01  0.4698893521E-01  0.3523869753E+01 -0.4404080461E-16 -0.3071258571E+00  0.7318644250E+15  0.3485549703E+01 -0.4521060375E-16 -0.2948203878E+00
  0.1457046303E+01  0.1000000000E+01  0.4698893521E-01  0.2610443912E+01 -0.4910415533E-17 -0.1172113005E+00  0.7318644250E+15  0.2573693921E+01 -0.3802904499E-17 -0.1185549059E+00
  0.1342953697E+01  0.1000000000E+01  0.4698893521E-01  0.2654064176E+01  0.2791853925E-16 -0.9679714249E-01  0.7318644250E+15  0.2617850573E+01  0.2759806464E-16 -0.9693273605E-01
  0.1246988935E+01  0.1000000000E+01  0.4698893521E-01  0.2083207661E+01 -0.7743241803E-17 -0.7653330277E-01  0.7318644250E+15  0.2050552748E+01 -0.9103318099E-17 -0.7112083756E-01
  0.1200000000E+01  0.1000000000E+01  0.4698893521E-01  0.2447476873E+01 -0.4610023050E-16 -0.2596737813E+00  0.7318644250E+15  0.2412469160E+01 -0.4458649076E-16 -0.2509879587E+00
  0.1600000000E+01  0.1000000000E+01  0.1429536967E+00  0.6472818890E+01 -0.2698506363E-15 -0.1723671522E+01  0.7318644250E+15  0.6401780240E+01 -0.2727940594E-15 -0.1754485356E+01
  0.1553011065E+01  0.1000000000E+01  0.1429536967E+00  0.8223882861E+01 -0.1440919015E-15 -0.8884441433E+00  0.7318644250E+15  0.8191055253E+01 -0.1430359341E-15 -0.9142941883E+00
  0.1457046303E+01  0.1000000000E+01  0.1429536967E+00  0.6290579521E+01  0.2723031770E-16 -0.8882184694E+00  0.7318644250E+15  0.6256537249E+01  0.2491397452E-16 -0.9091828529E+00
  0.1342953697E+01  0.1000000000E+01  0.1429536967E+00  0.6347511352E+01  0.9760866344E-16 -0.2229629947E+00  0.7318644250E+15  0.6302989386E+01  0.9599261691E-16 -0.2357021186E+00
  0.1246988935E+01  0.1000000000E+01  0.1429536967E+00  0.5001507700E+01  0.2472731535E-16 -0.8179539700E+00  0.7318644250E+15  0.4960684407E+01  0.2796913639E-16 -0.8203068204E+00
  0.1200000000E+01  0.1000000000E+01  0.1429536967E+00  0.5713065198E+01 -0.6305706694E-16 -0.6963808692E+00  0.7318644250E+15  0.5658413450E+01 -0.6172624260E-16 -0.6924595686E+00
  0.1600000000E+01  0.1000000000E+01  0.2570463033E+00  0.1163466421E+02  0.9862442687E-16 -0.3353395241E+01  0.7318644250E+15  0.1157050416E+02  0.9834081121E-16 -0.3402335307E+01
  0.1553011065E+01  0.1000000000E+01  0.2570463033E+00  0.1062189211E+02  0.1201169445E-15 -0.2274502618E+01  0.7318644250E+15  0.1057533902E+02  0.1193601095E-15 -0.2312400225E+01
  0.1457046303E+01  0.1000000000E+01  0.2570463033E+00  0.9390689284E+01  0.1755549696E-15 -0.2205778208E+01  0.7318644250E+15  0.9345601546E+01  0.1728860163E-15 -0.2232269160E+01
  0.1342953697E+01  0.1000000000E+01  0.2570463033E+00  0.7864993574E+01  0.1249935363E-15 -0.1189140619E+01  0.7318644250E+15  0.7813874815E+01  0.1220861722E-15 -0.1207914303E+01
  0.1246988935E+01  0.1000000000E+01  0.2570463033E+00  0.6640012970E+01  0.3815535399E-16 -0.2024720906E+01  0.7318644250E+15  0.6582276827E+01  0.3516604706E-16 -0.2032964815E+01
  0.1200000000E+01  0.1000000000E+01  0.2570463033E+00  0.6202761473E+01 -0.9552640892E-17 -0.1816455271E+01  0.7318644250E+15  0.6130192560E+01 -0.9397121049E-17 -0.1818370922E+01
  0.1600000000E+01  0.1000000000E+01  0.3530110648E+00  0.1031733171E+02  0.2008224580E-15 -0.3668254556E+01  0.7318644250E+15  0.1023864132E+02  0.2009435170E-15 -0.3701051601E+01
  0.1553011065E+01  0.1000000000E+01  0.3530110648E+00  0.1057197608E+02  0.2010248728E-15 -0.3610701236E+01  0.7318644250E+15  0.1051997493E+02  0.2006380534E-15 -0.3644526777E+01
  0.1457046303E+01  0.1000000000E+01  0.3530110648E+00  0.9493087934E+01  0.1835224032E-15 -0.3298480782E+01  0.7318644250E+15  0.9443443919E+01  0.1809199862E-15 -0.3332292381E+01
  0.1342953697E+01  0.1000000000E+01  0.3530110648E+00  0.8310621134E+01  0.1360564708E-15 -0.2685697439E+01  0.7318644250E+15  0.8250746728E+01  0.1343910135E-15 -0.2707854294E+01
  0.1246988935E+01  0.1000000000E+01  0.3530110648E+00  0.6924917100E+01  0.5338587462E-16 -0.3010059037E+01  0.7318644250E+15  0.6851397731E+01  0.5579080813E-16 -0.3015226831E+01
  0.1200000000E+01  0.1000000000E+01  0.3530110648E+00  0.6807852511E+01  0.2533307552E-16 -0.3004486131E+01  0.7318644250E+15  0.6708255833E+01  0.2535001457E-16 -0.2999636781E+01
  0.1600000000E+01  0.1000000000E+01  0.4000000000E+00  0.1058124154E+02  0.2008173974E-15 -0.4267647984E+01  0.7318644250E+15  0.1050836312E+02  0.2007631975E-15 -0.4349179347E+01
  0.1553011065E+01  0.1000000000E+01  0.4000000000E+00  0.9987382407E+01  0.2100785984E-15 -0.3539428273E+01  0.7318644250E+15  0.9936714761E+01  0.2114243090E-15 -0.3616220824E+01
  0.1457046303E+01  0.1000000000E+01  0.4000000000E+00  0.9491520444E+01  0.1742500745E-15 -0.3778793705E+01  0.7318644250E+15  0.9436123228E+01  0.1744171158E-15 -0.3839193564E+01
  0.1342953697E+01  0.1000000000E+01  0.4000000000E+00  0.8166519400E+01  0.1391017050E-15 -0.3080423272E+01  0.7318644250E+15  0.8098687623E+01  0.1350072273E-15 -0.3116130225E+01
  0.1246988935E+01  0.1000000000E+01  0.4000000000E+00  0.7149354184E+01  0.5043438395E-16 -0.3590041996E+01  0.7318644250E+15  0.7063707823E+01  0.5147605176E-16 -0.3597366531E+01
  0.1200000000E+01  0.1000000000E+01  0.4000000000E+00  0.6538304451E+01  0.2763471943E-16 -0.3321207886E+01  0.7318644250E+15  0.6431942455E+01  0.2763405149E-16 -0.3318951705E+01
ZONE I=6, J=6, K=1, F=POINT
  0.2000000000E+01  0.1000000000E+01  0.0000000000E+00  0.2401371017E+01  0.7087507959E-19  0.2123355682E+02  0.7318644249E+15  0.2427292577E+01  0.8871541277E-19  0.2215263972E+02
  0.1953011065E+01  0.1000000000E+01  0.0000000000E+00  0.1283126806E+01 -0.3707306874E-16 -0.1378414709E+00  0.7318644250E+15  0.1274808690E+01 -0.3559400775E-16 -0.1533442517E+00
  0.1857046303E+01  0.1000000000E+01  0.0000000000E+00 -0.3183986230E+00 -0.1947296941E-16  0.1518376494E+00  0.7318644250E+15 -0.3327652254E+00 -0.2072484287E-16  0.1510204170E+00
  0.1742953697E+01  0.1000000000E+01  0.0000000000E+00  0.1223311823E+00  0.1809003437E-18 -0.3736320651E-01  0.7318644250E+15  0.1122689984E+00  0.1874365658E-19 -0.3715634486E-01
  0.1646988935E+01  0.1000000000E+01  0.0000000000E+00 -0.1409523204E+00  0.3568378178E-18  0.6048106616E-01  0.7318644250E+15 -0.1511375483E+00  0.3418841139E-18  0.5995609563E-01
  0.1600000000E+01  0.1000000000E+01  0.0000000000E+00  0.7663385488E-01 -0.1015136086E-17 -0.8335879841E-01  0.7318644250E+15  0.6809244181E-01 -0.1144961536E-17 -0.8124509103E-01
  0.2000000000E+01  0.1000000000E+01  0.4698893521E-01 -0.1294200908E-01  0.7561689781E-18  0.4847350628E+02  0.7318644250E+15 -0.5833893480E-01  0.6817487285E-18  0.4863590617E+02
  0.1953011065E+01  0.1000000000E+01  0.4698893521E-01  0.1096743742E+02  0.1351225937E-15  0.1470359324E+01  0.7318644250E+15  0.1089842431E+02  0.1333875098E-15  0.1436091300E+01
  0.1857046303E+01  0.1000000000E+01  0.4698893521E-01  0.1160299159E+02  0.2861617685E-15 -0.1903066479E+01  0.7318644250E+15  0.1154025900E+02  0.2818761899E-15 -0.1938991940E+01
  0.1742953697E+01  0.1000000000E+01  0.4698893521E-01  0.5690428486E+01 -0.4422136230E-16 -0.6670491149E+00  0.7318644250E+15  0.5635935182E+01 -0.4367363599E-16 -0.6909261240E+00
  0.1646988935E+01  0.1000000000E+01  0.4698893521E-01  0.4437360703E+01 -0.1224905761E-15 -0.6618779080E+00  0.7318644250E+15  0.4371258357E+01 -0.1192210169E-15 -0.6535797681E+00
  0.1600000000E+01  0.1000000000E+01  0.4698893521E-01  0.2826227614E+01 -0.8505256351E-16  0.1805248525E+00  0.7318644250E+15  0.2789714205E+01 -0.8385798386E-16  0.1915810878E+00
  0.2000000000E+01  0.1000000000E+01  0.1429536967E+00 -0.2823679343E+00  0.2690924276E-17  0.5048991781E+02  0.7318644250E+15 -0.2574095195E+00  0.2783959008E-17  0.5041282506E+02
  0.1953011065E+01  0.1000000000E+01  0.1429536967E+00  0.2788016116E+01 -0.5095266818E-15  0.1634513119E+02  0.7318644250E+15  0.2712591541E+01 -0.5150269320E-15  0.1631657464E+02
  0.1857046303E+01  0.1000000000E+01  0.1429536967E+00  0.1266957248E+02 -0.2673738790E-15 -0.3679036304E+01  0.7318644250E+15  0.1259606465E+02 -0.2632062537E-15 -0.3737887794E+01
  0.1742953697E+01  0.1000000000E+01  0.1429536967E+00  0.9960391420E+01 -0.3514064073E-16 -0.4045239619E+01  0.7318644250E+15  0.9883628975E+01 -0.4315811045E-16 -0.4105789708E+01
  0.1646988935E+01  0.1000000000E+01  0.1429536967E+00  0.9405614463E+01 -0.1643999694E-15 -0.1990992026E+01  0.7318644250E+15  0.9310998135E+01 -0.1644815918E-15 -0.2029761041E+01
  0.1600000000E+01  0.1000000000E+01  0.1429536967E+00  0.6099423454E+01 -0.2864326193E-15 -0.1724005119E+01  0.7318644250E+15  0.6069515284E+01 -0.2897816138E-15 -0.1759181923E+01
  0.2000000000E+01  0.1000000000E+01  0.2570463033E+00  0.1886414802E-01  0.1135489671E-17  0.4985849796E+02  0.7318644250E+15  0.1776222306E-01  0.1078796739E-17  0.4985173070E+02