TITLE = "Generated from ../MESH/Convergence_0000000000.hmesh and Convergence_0000004700.hsol"
VARIABLES = "x","y","z","veloT_x","veloT_y","veloT_z","slr_4","velo_x","velo_y","velo_z"
ZONE I=6, J=6, K=1, F=POINT
  0.4000000000E+00  0.1000000000E+01  0.0000000000E+00 -0.1226093473E-01  0.2807762010E-19  0.6999523673E-02  0.6573625489E+15 -0.1341255515E-01  0.2734691415E-19  0.7306487901E-02
  0.3530110648E+00  0.1000000000E+01  0.0000000000E+00 -0.1417254902E-02  0.9707794330E-20 -0.4818197018E-03  0.6573625489E+15 -0.2787975597E-02  0.1008574523E-19 -0.3504916044E-03
  0.2570463033E+00  0.1000000000E+01  0.0000000000E+00 -0.1616290660E-03  0.1336913698E-20  0.2180733550E-02  0.6573625489E+15 -0.1217144564E-02  0.1547109906E-20  0.2224206562E-02
  0.1429536967E+00  0.1000000000E+01  0.0000000000E+00 -0.1209818755E-02  0.2408518195E-21 -0.1148198858E-02  0.6573625489E+15 -0.1988988155E-02  0.2626926542E-21 -0.1117108432E-02
  0.4698893521E-01  0.1000000000E+01  0.0000000000E+00  0.1641040075E-02 -0.2174660679E-20  0.1951945019E-02  0.6573625489E+15  0.1029880108E-02 -0.2422925992E-20  0.2055408694E-02
  0.0000000000E+00  0.1000000000E+01  0.0000000000E+00 -0.7539900632E-02  0.1326582320E-22  0.2070617112E-02  0.6573625489E+15 -0.7622077936E-02  0.1598684593E-22  0.2159154179E-02
  0.4000000000E+00  0.1000000000E+01  0.4698893521E-01  0.2682965720E+00  0.3029083843E-17 -0.4511427539E-01  0.6573625489E+15  0.2637107718E+00  0.3055333339E-17 -0.3991444239E-01
  0.3530110648E+00  0.1000000000E+01  0.4698893521E-01  0.1298521306E+00  0.2715321149E-17 -0.8371991792E-02  0.6573625489E+15  0.1247906908E+00  0.2762497666E-17 -0.2647882879E-02
  0.2570463033E+00  0.1000000000E+01  0.4698893521E-01  0.1012888078E+00  0.1101402205E-17 -0.1943893810E-01  0.6573625489E+15  0.9750835348E-01  0.1116573199E-17 -0.1256134341E-01
  0.1429536967E+00  0.1000000000E+01  0.4698893521E-01  0.5720842069E-02  0.3055795191E-18 -0.1152646921E-01  0.6573625489E+15  0.3204299864E-02  0.3020143240E-18 -0.6347602426E-02
  0.4698893521E-01  0.1000000000E+01  0.4698893521E-01 -0.3739340145E-03  0.6893120881E-19 -0.9533009045E-02  0.6573625489E+15 -0.2340153903E-02  0.6533230226E-19 -0.6605917558E-02
  0.0000000000E+00  0.1000000000E+01  0.4698893521E-01 -0.1812673861E-01  0.9136942272E-21  0.2583672825E-02  0.6573625489E+15 -0.1822300908E-01  0.9465779807E-21  0.3204981862E-02
  0.4000000000E+00  0.1000000000E+01  0.1429536967E+00  0.6001695878E+00  0.9807296173E-17 -0.1342636904E+00  0.6573625489E+15  0.5940166528E+00  0.9726720951E-17 -0.1321779114E+00
  0.3530110648E+00  0.1000000000E+01  0.1429536967E+00  0.3427036425E+00  0.6189422246E-17 -0.1713498913E+00  0.6573625489E+15  0.3348968750E+00  0.6169771845E-17 -0.1674772736E+00
  0.2570463033E+00  0.1000000000E+01  0.1429536967E+00  0.2390570673E+00  0.2518556184E-17 -0.1113525383E+00  0.6573625489E+15  0.2341847894E+00  0.2521869865E-17 -0.1044481565E+00
  0.1429536967E+00  0.1000000000E+01  0.1429536967E+00  0.3688744658E-01  0.9593021873E-18 -0.1194477269E+00  0.6573625489E+15  0.3706834934E-01  0.9638115979E-18 -0.1121708249E+00
  0.4698893521E-01  0.1000000000E+01  0.1429536967E+00 -0.6231889124E-02  0.2514819522E-18 -0.1143509353E-01  0.6573625489E+15 -0.5344194677E-02  0.2317794337E-18 -0.7378352259E-02
  0.0000000000E+00  0.1000000000E+01  0.1429536967E+00 -0.2127702389E-01  0.3370150843E-22 -0.9313326205E-03  0.6573625489E+15 -0.2123374640E-01  0.3162188710E-21 -0.1292835304E-03
  0.4000000000E+00  0.1000000000E+01  0.2570463033E+00  0.7010893469E+00  0.3950792397E-17 -0.4134958325E+00  0.6573625489E+15  0.6905368467E+00  0.3937039892E-17 -0.4193517358E+00
  0.3530110648E+00  0.1000000000E+01  0.2570463033E+00  0.5206852010E+00  0.2683127653E-17 -0.4516178454E+00  0.6573625489E+15  0.5089915479E+00  0.2620578769E-17 -0.4561283187E+00
  0.2570463033E+00  0.1000000000E+01  0.2570463033E+00  0.3174359161E+00  0.2230271837E-17 -0.3132210680E+00  0.6573625489E+15  0.3087979148E+00  0.2230592589E-17 -0.3146796893E+00
  0.1429536967E+00  0.1000000000E+01  0.2570463033E+00  0.8863858045E-01  0.1637036445E-17 -0.2860564566E+00  0.6573625489E+15  0.8871399435E-01  0.1636744026E-17 -0.2835421118E+00
  0.4698893521E-01  0.1000000000E+01  0.2570463033E+00  0.8175071028E-02  0.1071311524E-17 -0.5154568090E-01  0.6573625489E+15  0.1171244918E-01  0.1113588036E-17 -0.4827195448E-01
  0.0000000000E+00  0.1000000000E+01  0.2570463033E+00 -0.1414448004E-01 -0.4226821980E-20 -0.7905778782E-03  0.6573625489E+15 -0.1416916230E-01 -0.4823874815E-20  0.3505629149E-04
  0.4000000000E+00  0.1000000000E+01  0.3530110648E+00  0.7438896535E+00  0.4498060776E-17 -0.7009338471E+00  0.6573625489E+15  0.7330440575E+00  0.4505930522E-17 -0.7064399040E+00
  0.3530110648E+00  0.1000000000E+01  0.3530110648E+00  0.5453610812E+00  0.3974962866E-17 -0.7018334908E+00  0.6573625489E+15  0.5328574809E+00  0.3975915882E-17 -0.7085382327E+00
  0.2570463033E+00  0.1000000000E+01  0.3530110648E+00  0.3248932783E+00  0.2333194011E-17 -0.5288666587E+00  0.6573625489E+15  0.3126293949E+00  0.2409848596E-17 -0.5342912960E+00
  0.1429536967E+00  0.1000000000E+01  0.3530110648E+00  0.9232699425E-01  0.2139237087E-17 -0.4270560961E+00  0.6573625489E+15  0.8878215246E-01  0.2136591346E-17 -0.4267494353E+00
  0.4698893521E-01  0.1000000000E+01  0.3530110648E+00  0.1371207044E-01  0.6605834895E-18 -0.1144435375E+00  0.6573625489E+15  0.1646988533E-01  0.6325038756E-18 -0.1112764047E+00
  0.0000000000E+00  0.1000000000E+01  0.3530110648E+00 -0.1424025740E-01  0.4915423028E-20 -0.1018544475E-02  0.6573625489E+15 -0.1429901765E-01  0.4657804132E-20 -0.9489347723E-04
  0.4000000000E+00  0.1000000000E+01  0.4000000000E+00  0.7277854142E+00  0.6633374099E-17 -0.8511171540E+00  0.6573625489E+15  0.7186320386E+00  0.6623655565E-17 -0.8533156459E+00
  0.3530110648E+00  0.1000000000E+01  0.4000000000E+00  0.5745381998E+00  0.5800025949E-17 -0.8388837848E+00  0.6573625489E+15  0.5635100093E+00  0.5833786319E-17 -0.8442463527E+00
  0.2570463033E+00  0.1000000000E+01  0.4000000000E+00  0.3238002832E+00  0.2355191382E-17 -0.6440979732E+00  0.6573625489E+15  0.3095325470E+00  0.2310029814E-17 -0.6494458345E+00
  0.1429536967E+00  0.1000000000E+01  0.4000000000E+00  0.1014783429E+00  0.2273113295E-17 -0.5080433345E+00  0.6573625489E+15  0.9563882258E-01  0.2305282418E-17 -0.5064228108E+00
  0.4698893521E-01  0.1000000000E+01  0.4000000000E+00  0.1067048875E-01  0.6540453854E-18 -0.1456106735E+00  0.6573625489E+15  0.1349191857E-01  0.6415785326E-18 -0.1425943670E+00
  0.0000000000E+00  0.1000000000E+01  0.4000000000E+00 -0.6641496700E-02  0.8040233344E-20 -0.2673251313E-02  0.6573625489E+15 -0.6837510642E-02  0.8502120956E-20 -0.1850156235E-02
ZONE I=6, J=6, K=1, F=POINT
  0.8000000000E+00  0.1000000000E+01  0.0000000000E+00  0.1674463884E-01 -0.8439238915E-19 -0.1221700694E-01  0.6573625489E+15  0.1485720428E-01 -0.8790530393E-19 -0.1213043452E-01
  0.7530110648E+00  0.1000000000E+01  0.0000000000E+00  0.7567092648E-03  0.5414433932E-19  0.5734486750E-02  0.6573625489E+15 -0.9904191993E-03  0.1369562898E-19  0.5801134931E-02
  0.6570463033E+00  0.1000000000E+01  0.0000000000E+00 -0.1772854836E-02  0.4403014377E-20  0.3496547050E-03  0.6573625489E+15 -0.3327131018E-02 -0.1457045399E-19  0.3395852701E-03
  0.5429536967E+00  0.1000000000E+01  0.0000000000E+00 -0.4706970112E-03 -0.5869156151E-20  0.7156536219E-02  0.6573625489E+15 -0.1778113141E-02 -0.3913500233E-19  0.7088162284E-02
  0.4469889352E+00  0.1000000000E+01  0.0000000000E+00 -0.3175800902E-02 -0.7458208936E-19  0.6152300154E-03  0.6573625489E+15 -0.4315468194E-02 -0.1090085837E-18  0.7172245399E-03
  0.4000000000E+00  0.1000000000E+01  0.0000000000E+00  0.1402948483E-01  0.3176932176E-19  0.6673736881E-02  0.6573625489E+15  0.1286224832E-01  0.3109959360E-19  0.6998094440E-02
  0.8000000000E+00  0.1000000000E+01  0.4698893521E-01  0.3373560727E+00 -0.2367237184E-16  0.1488357159E-02  0.6573625489E+15  0.3301538538E+00 -0.2358285867E-16  0.9123681797E-02
  0.7530110648E+00  0.1000000000E+01  0.4698893521E-01  0.5307360853E+00 -0.2322459620E-16 -0.5851978985E-01  0.6573625489E+15  0.5227118820E+00 -0.2277472796E-16 -0.5086086911E-01
  0.6570463033E+00  0.1000000000E+01  0.4698893521E-01  0.3086921605E+00 -0.4562982683E-17 -0.2950070728E-01  0.6573625489E+15  0.3015703039E+00 -0.4637021307E-17 -0.2074497359E-01
  0.5429536967E+00  0.1000000000E+01  0.4698893521E-01  0.3345060606E+00  0.4307049734E-17 -0.1677134487E-01  0.6573625489E+15  0.3287963247E+00  0.4215393740E-17 -0.8934638445E-02
  0.4469889352E+00  0.1000000000E+01  0.4698893521E-01  0.2044169266E+00  0.3979283972E-17 -0.3533309329E-02  0.6573625489E+15  0.1990406271E+00  0.4007365213E-17  0.2264263429E-02
  0.4000000000E+00  0.1000000000E+01  0.4698893521E-01  0.3100648126E+00  0.2789069760E-17 -0.4587253344E-01  0.6573625489E+15  0.3051843652E+00  0.2817245360E-17 -0.4066575779E-01
  0.8000000000E+00  0.1000000000E+01  0.1429536967E+00  0.1088544576E+01 -0.5376720366E-16 -0.3892130079E+00  0.6573625489E+15  0.1083754474E+01 -0.5388241278E-16 -0.3807781267E+00
  0.7530110648E+00  0.1000000000E+01  0.1429536967E+00  0.1378676868E+01 -0.3383532451E-16 -0.2434167954E+00  0.6573625489E+15  0.1372148679E+01 -0.3383504030E-16 -0.2371386782E+00
  0.6570463033E+00  0.1000000000E+01  0.1429536967E+00  0.9238730480E+00 -0.3715859118E-17 -0.2341470453E+00  0.6573625489E+15  0.9179490015E+00 -0.3472514096E-17 -0.2313745015E+00
  0.5429536967E+00  0.1000000000E+01  0.1429536967E+00  0.8378134189E+00  0.9408980255E-17 -0.8284162615E-01  0.6573625489E+15  0.8337581550E+00  0.9293956660E-17 -0.8233054919E-01
  0.4469889352E+00  0.1000000000E+01  0.1429536967E+00  0.5284291999E+00  0.9785652841E-17 -0.1591993542E+00  0.6573625489E+15  0.5233706785E+00  0.9814301919E-17 -0.1581385609E+00
  0.4000000000E+00  0.1000000000E+01  0.1429536967E+00  0.6512175811E+00  0.1051106719E-16 -0.1337081628E+00  0.6573625489E+15  0.6450660177E+00  0.1043045451E-16 -0.1316267270E+00
  0.8000000000E+00  0.1000000000E+01  0.2570463033E+00  0.2135382989E+01 -0.1336689195E-16 -0.9633067812E+00  0.6573625489E+15  0.2135789856E+01 -0.1337445643E-16 -0.9675378738E+00
  0.7530110648E+00  0.1000000000E+01  0.2570463033E+00  0.1995140973E+01 -0.9936575094E-17 -0.7070292138E+00  0.6573625489E+15  0.1994778319E+01 -0.1000942269E-16 -0.7127821481E+00
  0.6570463033E+00  0.1000000000E+01  0.2570463033E+00  0.1501174567E+01 -0.3455099563E-17 -0.6378703977E+00  0.6573625489E+15  0.1499236960E+01 -0.3394358658E-17 -0.6473515998E+00
  0.5429536967E+00  0.1000000000E+01  0.2570463033E+00  0.1130701047E+01  0.2704517744E-17 -0.3718586357E+00  0.6573625489E+15  0.1125727317E+01  0.2626175447E-17 -0.3814328979E+00
  0.4469889352E+00  0.1000000000E+01  0.2570463033E+00  0.7824602484E+00  0.3536417248E-17 -0.4663218550E+00  0.6573625489E+15  0.7740920398E+00  0.3457159304E-17 -0.4733943207E+00
  0.4000000000E+00  0.1000000000E+01  0.2570463033E+00  0.7323999361E+00  0.3976406689E-17 -0.4128427485E+00  0.6573625489E+15  0.7220759140E+00  0.3960918463E-17 -0.4187480028E+00
  0.8000000000E+00  0.1000000000E+01  0.3530110648E+00  0.2388160900E+01  0.1570549289E-17 -0.1465799734E+01  0.6573625489E+15  0.2389224738E+01  0.1584844592E-17 -0.1473046359E+01
  0.7530110648E+00  0.1000000000E+01  0.3530110648E+00  0.2271297770E+01  0.6587480645E-17 -0.1241710105E+01  0.6573625489E+15  0.2272165757E+01  0.6612157232E-17 -0.1248065918E+01
  0.6570463033E+00  0.1000000000E+01  0.3530110648E+00  0.1725161307E+01 -0.3356988166E-19 -0.1056642920E+01  0.6573625489E+15  0.1723890244E+01  0.8506929301E-19 -0.1061297252E+01
  0.5429536967E+00  0.1000000000E+01  0.3530110648E+00  0.1263260026E+01  0.3529476290E-18 -0.7397805959E+00  0.6573625489E+15  0.1257183785E+01  0.7628152838E-18 -0.7447270886E+00
  0.4469889352E+00  0.1000000000E+01  0.3530110648E+00  0.8208236114E+00  0.4370588634E-17 -0.7571853328E+00  0.6573625489E+15  0.8113860996E+00  0.4388177584E-17 -0.7622674810E+00
  0.4000000000E+00  0.1000000000E+01  0.3530110648E+00  0.7771232405E+00  0.4476600717E-17 -0.7007356712E+00  0.6573625489E+15  0.7663795676E+00  0.4486459421E-17 -0.7062389481E+00
  0.8000000000E+00  0.1000000000E+01  0.4000000000E+00  0.2493787587E+01 -0.4024133320E-17 -0.1769103227E+01  0.6573625489E+15  0.2494736102E+01 -0.4025535000E-17 -0.1770348361E+01
  0.7530110648E+00  0.1000000000E+01  0.4000000000E+00  0.2250589390E+01 -0.7504727696E-18 -0.1483423241E+01  0.6573625489E+15  0.2249744726E+01 -0.6878320584E-18 -0.1483249714E+01
  0.6570463033E+00  0.1000000000E+01  0.4000000000E+00  0.1750665939E+01  0.4912084165E-18 -0.1283060282E+01  0.6573625489E+15  0.1749421847E+01  0.4341280279E-18 -0.1279475588E+01
  0.5429536967E+00  0.1000000000E+01  0.4000000000E+00  0.1255570318E+01  0.6048499124E-17 -0.9671738092E+00  0.6573625489E+15  0.1250504280E+01  0.6010835708E-17 -0.9685369296E+00
  0.4469889352E+00  0.1000000000E+01  0.4000000000E+00  0.8761071797E+00  0.6848437409E-17 -0.9319128919E+00  0.6573625489E+15  0.8665685666E+00  0.6562575614E-17 -0.9337558772E+00
  0.4000000000E+00  0.1000000000E+01  0.4000000000E+00  0.7387953011E+00  0.6654385265E-17 -0.8503619308E+00  0.6573625489E+15  0.7301350989E+00  0.6646853907E-17 -0.8526237734E+00
ZONE I=6, J=6, K=1, F=POINT
  0.1200000000E+01  0.1000000000E+01  0.0000000000E+00 -0.3291807168E-01  0.5724194146E-19  0.3708342529E-01  0.6573625489E+15 -0.3499023078E-01  0.5740686133E-19  0.3674188811E-01
  0.1153011065E+01  0.1000000000E+01  0.0000000000E+00 -0.6287375215E-02 -0.2751403501E-18 -0.9567406790E-02  0.6573625489E+15 -0.8429276750E-02 -0.3788418948E-18 -0.9615701562E-02
  0.1057046303E+01  0.1000000000E+01  0.0000000000E+00  0.9598334188E-03 -0.1102810825E-19  0.5935146115E-02  0.6573625489E+15 -0.9745853666E-03 -0.6200609927E-19  0.5975433306E-02
  0.9429536967E+00  0.1000000000E+01  0.0000000000E+00 -0.3232090034E-02  0.4323834286E-20 -0.8302217516E-02  0.6573625489E+15 -0.4998186201E-02  0.2940119759E-20 -0.8325456010E-02
  0.8469889352E+00  0.1000000000E+01  0.0000000000E+00  0.2171777869E-02 -0.2000178758E-19  0.5177333279E-02  0.6573625489E+15  0.5541830176E-03 -0.2139423943E-19  0.5161314297E-02
  0.8000000000E+00  0.1000000000E+01  0.0000000000E+00 -0.2866145845E-01 -0.9406105732E-19 -0.1169158105E-01  0.6573625489E+15 -0.3032480358E-01 -0.9793423507E-19 -0.1159788961E-01
  0.1200000000E+01  0.1000000000E+01  0.4698893521E-01  0.2215229090E+01 -0.4221417037E-16 -0.2215051687E+00  0.6573625489E+15  0.2208585349E+01 -0.4189275793E-16 -0.2008818471E+00
  0.1153011065E+01  0.1000000000E+01  0.4698893521E-01  0.1523165894E+01 -0.2637329593E-16 -0.7435319616E-01  0.6573625489E+15  0.1516568403E+01 -0.2618617379E-16 -0.5529329090E-01
  0.1057046303E+01  0.1000000000E+01  0.4698893521E-01  0.1381086457E+01 -0.1245936317E-16 -0.1074954086E+00  0.6573625489E+15  0.1373941367E+01 -0.1252301002E-16 -0.9295507899E-01
  0.9429536967E+00  0.1000000000E+01  0.4698893521E-01  0.7695040186E+00 -0.1486655698E-16 -0.9320499328E-01  0.6573625489E+15  0.7631396534E+00 -0.1467834186E-16 -0.8042334328E-01
  0.8469889352E+00  0.1000000000E+01  0.4698893521E-01  0.6657073862E+00 -0.2777399871E-16 -0.8707597085E-01  0.6573625489E+15  0.6603840931E+00 -0.2754438982E-16 -0.7783883822E-01
  0.8000000000E+00  0.1000000000E+01  0.4698893521E-01  0.2763890655E+00 -0.2297569412E-16  0.3553279144E-02  0.6573625489E+15  0.2698965978E+00 -0.2289671934E-16  0.1113344995E-01
  0.1200000000E+01  0.1000000000E+01  0.1429536967E+00  0.5128559053E+01 -0.5860595784E-16 -0.6546304973E+00  0.6573625489E+15  0.5126782593E+01 -0.5843198061E-16 -0.6353541625E+00
  0.1153011065E+01  0.1000000000E+01  0.1429536967E+00  0.3668421345E+01 -0.6777146196E-16 -0.8619536212E+00  0.6573625489E+15  0.3667042095E+01 -0.6802204693E-16 -0.8432725280E+00
  0.1057046303E+01  0.1000000000E+01  0.1429536967E+00  0.3274340976E+01 -0.3900063566E-16 -0.6457845276E+00  0.6573625489E+15  0.3270692442E+01 -0.3898721260E-16 -0.6297198858E+00
  0.9429536967E+00  0.1000000000E+01  0.1429536967E+00  0.2007980083E+01 -0.3452501032E-16 -0.7537851100E+00  0.6573625489E+15  0.2004471179E+01 -0.3451018027E-16 -0.7414857860E+00
  0.8469889352E+00  0.1000000000E+01  0.1429536967E+00  0.1718417399E+01 -0.5025937004E-16 -0.4086161093E+00  0.6573625489E+15  0.1717026062E+01 -0.5027504342E-16 -0.3990497841E+00
  0.8000000000E+00  0.1000000000E+01  0.1429536967E+00  0.1004836143E+01 -0.5598370881E-16 -0.3908280165E+00  0.6573625489E+15  0.1001460129E+01 -0.5612214897E-16 -0.3823710065E+00
  0.1200000000E+01  0.1000000000E+01  0.2570463033E+00  0.5397979173E+01 -0.6521619422E-17 -0.1762542911E+01  0.6573625489E+15  0.5390471834E+01 -0.6468522061E-17 -0.1768983380E+01
  0.1153011065E+01  0.1000000000E+01  0.2570463033E+00  0.4860302240E+01 -0.4017275904E-16 -0.2011264342E+01  0.6573625489E+15  0.4854932343E+01 -0.3957233997E-16 -0.2015511064E+01
  0.1057046303E+01  0.1000000000E+01  0.2570463033E+00  0.4019218720E+01 -0.3230719814E-16 -0.1616252394E+01  0.6573625489E+15  0.4017579277E+01 -0.3231726765E-16 -0.1616016508E+01
  0.9429536967E+00  0.1000000000E+01  0.2570463033E+00  0.3049905369E+01 -0.3140799891E-16 -0.1662642364E+01  0.6573625489E+15  0.3049913246E+01 -0.3138343534E-16 -0.1664883165E+01
  0.8469889352E+00  0.1000000000E+01  0.2570463033E+00  0.2501626369E+01 -0.1499182027E-16 -0.1037147024E+01  0.6573625489E+15  0.2501382579E+01 -0.1505789915E-16 -0.1040743664E+01
  0.8000000000E+00  0.1000000000E+01  0.2570463033E+00  0.2098180611E+01 -0.1352947202E-16 -0.9658474881E+00  0.6573625489E+15  0.2098383577E+01 -0.1352990054E-16 -0.9696994288E+00
  0.1200000000E+01  0.1000000000E+01  0.3530110648E+00  0.5678695748E+01  0.3280566887E-16 -0.2916274231E+01  0.6573625489E+15  0.5667404198E+01  0.3283710203E-16 -0.2925241147E+01
  0.1153011065E+01  0.1000000000E+01  0.3530110648E+00  0.4953879118E+01  0.1278766128E-16 -0.2840623869E+01  0.6573625489E+15  0.4942472210E+01  0.1295564841E-16 -0.2847549341E+01
  0.1057046303E+01  0.1000000000E+01  0.3530110648E+00  0.4224247473E+01 -0.7924577592E-17 -0.2463134826E+01  0.6573625489E+15  0.4221480826E+01 -0.7841126745E-17 -0.2468674478E+01
  0.9429536967E+00  0.1000000000E+01  0.3530110648E+00  0.3287633639E+01 -0.1534518358E-16 -0.2255244087E+01  0.6573625489E+15  0.3289816898E+01 -0.1534835815E-16 -0.2260944877E+01
  0.8469889352E+00  0.1000000000E+01  0.3530110648E+00  0.2824888854E+01 -0.7946791593E-18 -0.1653135716E+01  0.6573625489E+15  0.2825520430E+01 -0.7372999285E-18 -0.1660148822E+01
  0.8000000000E+00  0.1000000000E+01  0.3530110648E+00  0.2341319954E+01  0.1620747922E-17 -0.1466060008E+01  0.6573625489E+15  0.2343741008E+01  0.1642558700E-17 -0.1473346771E+01
  0.1200000000E+01  0.1000000000E+01  0.4000000000E+00  0.5386666440E+01  0.3892608602E-16 -0.3248907806E+01  0.6573625489E+15  0.5372236659E+01  0.3894100134E-16 -0.3242911064E+01
  0.1153011065E+01  0.1000000000E+01  0.4000000000E+00  0.5024288263E+01  0.3006301870E-16 -0.3356459183E+01  0.6573625489E+15  0.5013213577E+01  0.2994662013E-16 -0.3352857993E+01
  0.1057046303E+01  0.1000000000E+01  0.4000000000E+00  0.4159673091E+01  0.3700994048E-17 -0.2847326800E+01  0.6573625489E+15  0.4157674340E+01  0.3689136313E-17 -0.2849274912E+01
  0.9429536967E+00  0.1000000000E+01  0.4000000000E+00  0.3353124704E+01 -0.1417186585E-16 -0.2611294550E+01  0.6573625489E+15  0.3355005634E+01 -0.1406309409E-16 -0.2613252442E+01
  0.8469889352E+00  0.1000000000E+01  0.4000000000E+00  0.2782024253E+01 -0.8377069393E-17 -0.1922797925E+01  0.6573625489E+15  0.2783114535E+01 -0.8445085191E-17 -0.1924821951E+01
  0.8000000000E+00  0.1000000000E+01  0.4000000000E+00  0.2489576884E+01 -0.4007555959E-17 -0.1772462862E+01  0.6573625489E+15  0.2490761388E+01 -0.4007909328E-17 -0.1773296885E+01
ZONE I=6, J=6, K=1, F=POINT
  0.1600000000E+01  0.1000000000E+01  0.0000000000E+00  0.1290014458E+00 -0.9189042964E-18 -0.7180997134E-01  0.6573625489E+15  0.1273972039E+00 -0.1038104015E-17 -0.7180925223E-01
  0.1553011065E+01  0.1000000000E+01  0.0000000000E+00  0.9280550161E-02 -0.1266325549E-17  0.4527943441E-01  0.6573625489E+15  0.7168737985E-02 -0.1187582302E-17  0.4507164872E-01
  0.1457046303E+01  0.1000000000E+01  0.0000000000E+00 -0.8237897701E-02 -0.6289958578E-19 -0.3269866193E-02  0.6573625489E+15 -0.1081717881E-01 -0.2513730006E-19 -0.3270566968E-02
  0.1342953697E+01  0.1000000000E+01  0.0000000000E+00  0.4434259333E-02  0.3551807097E-18  0.2984041722E-01  0.6573625489E+15  0.2122422674E-02  0.2284760640E-18  0.2973577007E-01
  0.1246988935E+01  0.1000000000E+01  0.0000000000E+00 -0.8472257678E-02  0.1161673310E-18 -0.8219302249E-02  0.6573625489E+15 -0.1068638597E-01  0.1148210942E-18 -0.8222778195E-02
  0.1200000000E+01  0.1000000000E+01  0.0000000000E+00  0.5671589886E-01  0.6130049208E-19  0.3710310877E-01  0.6573625489E+15  0.5472578962E-01  0.6102374828E-19  0.3676744737E-01
  0.1600000000E+01  0.1000000000E+01  0.4698893521E-01  0.3001455227E+01 -0.8806823260E-16  0.2391942894E+00  0.6573625489E+15  0.2993347546E+01 -0.8788765136E-16  0.2340068623E+00
  0.1553011065E+01  0.1000000000E+01  0.4698893521E-01  0.3500830218E+01 -0.4352385243E-16 -0.2685622096E+00  0.6573625489E+15  0.3492058676E+01 -0.4378673806E-16 -0.2716684910E+00
  0.1457046303E+01  0.1000000000E+01  0.4698893521E-01  0.2532402599E+01 -0.4577337710E-17 -0.9082528267E-01  0.6573625489E+15  0.2523064151E+01 -0.4282368097E-17 -0.8727522900E-01
  0.1342953697E+01  0.1000000000E+01  0.4698893521E-01  0.2528330826E+01  0.2866087429E-16 -0.7238468160E-01  0.6573625489E+15  0.2518980658E+01  0.2858547566E-16 -0.6046739586E-01
  0.1246988935E+01  0.1000000000E+01  0.4698893521E-01  0.1950424703E+01 -0.6902527479E-17 -0.4516131818E-01  0.6573625489E+15  0.1941883290E+01 -0.7273028715E-17 -0.2611064656E-01
  0.1200000000E+01  0.1000000000E+01  0.4698893521E-01  0.2313871994E+01 -0.4644190237E-16 -0.2271962496E+00  0.6573625489E+15  0.2305356719E+01 -0.4609644835E-16 -0.2061826865E+00
  0.1600000000E+01  0.1000000000E+01  0.1429536967E+00  0.6369231442E+01 -0.2654533374E-15 -0.1792015524E+01  0.6573625489E+15  0.6342208711E+01 -0.2660468383E-15 -0.1799671128E+01
  0.1553011065E+01  0.1000000000E+01  0.1429536967E+00  0.8069791754E+01 -0.1424321176E-15 -0.9605741249E+00  0.6573625489E+15  0.8053528783E+01 -0.1420245075E-15 -0.9654064628E+00
  0.1457046303E+01  0.1000000000E+01  0.1429536967E+00  0.6008272222E+01  0.3310641557E-16 -0.9512556211E+00  0.6573625489E+15  0.5990963768E+01  0.3183672864E-16 -0.9481103390E+00
  0.1342953697E+01  0.1000000000E+01  0.1429536967E+00  0.5955947993E+01  0.1010436673E-15 -0.2356382577E+00  0.6573625489E+15  0.5937965872E+01  0.1004119349E-15 -0.2225678367E+00
  0.1246988935E+01  0.1000000000E+01  0.1429536967E+00  0.4584471330E+01  0.2584197342E-16 -0.7831210107E+00  0.6573625489E+15  0.4571364613E+01  0.2690371492E-16 -0.7640565744E+00
  0.1200000000E+01  0.1000000000E+01  0.1429536967E+00  0.5295676244E+01 -0.6278294084E-16 -0.6492166717E+00  0.6573625489E+15  0.5282994303E+01 -0.6249406071E-16 -0.6306185531E+00
  0.1600000000E+01  0.1000000000E+01  0.2570463033E+00  0.1128162862E+02  0.1039283556E-15 -0.3665592133E+01  0.6573625489E+15  0.1127251959E+02  0.1038192379E-15 -0.3683346675E+01
  0.1553011065E+01  0.1000000000E+01  0.2570463033E+00  0.1020350117E+02  0.1270213707E-15 -0.2580769916E+01  0.6573625489E+15  0.1018380167E+02  0.1267073515E-15 -0.2591691014E+01
  0.1457046303E+01  0.1000000000E+01  0.2570463033E+00  0.8810435632E+01  0.1877716603E-15 -0.2447105085E+01  0.6573625489E+15  0.8785006858E+01  0.1862121827E-15 -0.2453050503E+01
  0.1342953697E+01  0.1000000000E+01  0.2570463033E+00  0.7142534065E+01  0.1340392950E-15 -0.1281748053E+01  0.6573625489E+15  0.7122632276E+01  0.1328950226E-15 -0.1284972249E+01
  0.1246988935E+01  0.1000000000E+01  0.2570463033E+00  0.5876281492E+01  0.4321146976E-16 -0.1997440122E+01  0.6573625489E+15  0.5864337623E+01  0.4252814772E-16 -0.2003405827E+01
  0.1200000000E+01  0.1000000000E+01  0.2570463033E+00  0.5437472174E+01 -0.6816759681E-17 -0.1753100019E+01  0.6573625489E+15  0.5430120991E+01 -0.6752638626E-17 -0.1762225712E+01
  0.1600000000E+01  0.1000000000E+01  0.3530110648E+00  0.9736953768E+01  0.2061128538E-15 -0.4216905071E+01  0.6573625489E+15  0.9715831142E+01  0.2060891303E-15 -0.4227380579E+01
  0.1553011065E+01  0.1000000000E+01  0.3530110648E+00  0.9908998461E+01  0.2113358820E-15 -0.4139241578E+01  0.6573625489E+15  0.9884373843E+01  0.2111435790E-15 -0.4148836412E+01
  0.1457046303E+01  0.1000000000E+01  0.3530110648E+00  0.8647505465E+01  0.2020273954E-15 -0.3698028388E+01  0.6573625489E+15  0.8619682154E+01  0.2003535640E-15 -0.3705846293E+01
  0.1342953697E+01  0.1000000000E+01  0.3530110648E+00  0.7305706981E+01  0.1517392514E-15 -0.2845967519E+01  0.6573625489E+15  0.7288600654E+01  0.1512910197E-15 -0.2855297181E+01
  0.1246988935E+01  0.1000000000E+01  0.3530110648E+00  0.5870576833E+01  0.6466978211E-16 -0.2983522851E+01  0.6573625489E+15  0.5861504435E+01  0.6514457967E-16 -0.2993606860E+01
  0.1200000000E+01  0.1000000000E+01  0.3530110648E+00  0.5756612518E+01  0.3291625175E-16 -0.2916727882E+01  0.6573625489E+15  0.5741566928E+01  0.3291223280E-16 -0.2925363261E+01
  0.1600000000E+01  0.1000000000E+01  0.4000000000E+00  0.9897690523E+01  0.2079916798E-15 -0.4969885795E+01  0.6573625489E+15  0.9879609939E+01  0.2079069209E-15 -0.4973001829E+01
  0.1553011065E+01  0.1000000000E+01  0.4000000000E+00  0.9211630893E+01  0.2233321612E-15 -0.4207171685E+01  0.6573625489E+15  0.9187766324E+01  0.2238407616E-15 -0.4206956687E+01
  0.1457046303E+01  0.1000000000E+01  0.4000000000E+00  0.8519568715E+01  0.1941784558E-15 -0.4278100420E+01  0.6573625489E+15  0.8491576540E+01  0.1943552051E-15 -0.4278362018E+01
  0.1342953697E+01  0.1000000000E+01  0.4000000000E+00  0.7030063593E+01  0.1598897310E-15 -0.3285418805E+01  0.6573625489E+15  0.7014469795E+01  0.1589328218E-15 -0.3289499861E+01
  0.1246988935E+01  0.1000000000E+01  0.4000000000E+00  0.5964888282E+01  0.6574726372E-16 -0.3581664737E+01  0.6573625489E+15  0.5952577379E+01  0.6595282764E-16 -0.3578146894E+01
  0.1200000000E+01  0.1000000000E+01  0.4000000000E+00  0.5360503234E+01  0.3919047702E-16 -0.3236932274E+01  0.6573625489E+15  0.5347431861E+01  0.3918154034E-16 -0.3233595062E+01
ZONE I=6, J=6, K=1, F=POINT
  0.2000000000E+01  0.1000000000E+01  0.0000000000E+00  0.2401845423E+01  0.7330522504E-19  0.2123382508E+02  0.6573625489E+15  0.2429640305E+01  0.9382003252E-19  0.2215485220E+02
  0.1953011065E+01  0.1000000000E+01  0.0000000000E+00  0.1289638964E+01 -0.3729705733E-16 -0.1376703090E+00  0.6573625489E+15  0.1293506273E+01 -0.3603824050E-16 -0.1509054507E+00
  0.1857046303E+01  0.1000000000E+01  0.0000000000E+00 -0.3092598946E+00 -0.1895105493E-16  0.1519404676E+00  0.6573625489E+15 -0.3102513123E+00 -0.1945929783E-16  0.1505243750E+00
  0.1742953697E+01  0.1000000000E+01  0.0000000000E+00  0.1319828993E+00  0.2106282151E-18 -0.3746735928E-01  0.6573625489E+15  0.1324917405E+00  0.9653283140E-19 -0.3713916355E-01
  0.1646988935E+01  0.1000000000E+01  0.0000000000E+00 -0.1294806262E+00  0.3266364205E-18  0.6055108732E-01  0.6573625489E+15 -0.1296014867E+00  0.2953265320E-18  0.5958713276E-01
  0.1600000000E+01  0.1000000000E+01  0.0000000000E+00  0.8713273484E-01 -0.9979711401E-18 -0.8391215436E-01  0.6573625489E+15  0.8517478416E-01 -0.1118792619E-17 -0.8252264236E-01
  0.2000000000E+01  0.1000000000E+01  0.4698893521E-01 -0.1277473601E-01  0.7477056899E-18  0.4848042618E+02  0.6573625489E+15 -0.5566901096E-01  0.6848082844E-18  0.4865530548E+02
  0.1953011065E+01  0.1000000000E+01  0.4698893521E-01  0.1095422063E+02  0.1360299375E-15  0.1460073365E+01  0.6573625489E+15  0.1093812656E+02  0.1347819257E-15  0.1473607380E+01
  0.1857046303E+01  0.1000000000E+01  0.4698893521E-01  0.1162776617E+02  0.2880721424E-15 -0.1892651234E+01  0.6573625489E+15  0.1162433006E+02  0.2879781607E-15 -0.1892119749E+01
  0.1742953697E+01  0.1000000000E+01  0.4698893521E-01  0.5743398046E+01 -0.4054827054E-16 -0.6400602685E+00  0.6573625489E+15  0.5743981909E+01 -0.4019674154E-16 -0.6436359172E+00
  0.1646988935E+01  0.1000000000E+01  0.4698893521E-01  0.4456859208E+01 -0.1215196086E-15 -0.6174928576E+00  0.6573625489E+15  0.4451875191E+01 -0.1214518369E-15 -0.6209186776E+00
  0.1600000000E+01  0.1000000000E+01  0.4698893521E-01  0.2837123697E+01 -0.8521221884E-16  0.2250253578E+00  0.6573625489E+15  0.2838751262E+01 -0.8486152167E-16  0.2145368369E+00
  0.2000000000E+01  0.1000000000E+01  0.1429536967E+00 -0.2818093760E+00  0.2732506402E-17  0.5050053314E+02  0.6573625489E+15 -0.2574549277E+00  0.2767111625E-17  0.5043731429E+02
  0.1953011065E+01  0.1000000000E+01  0.1429536967E+00  0.2782497094E+01 -0.5130850123E-15  0.1637771011E+02  0.6573625489E+15  0.2764026025E+01 -0.5133999454E-15  0.1640978130E+02
  0.1857046303E+01  0.1000000000E+01  0.1429536967E+00  0.1269690683E+02 -0.2606428629E-15 -0.3625580421E+01  0.6573625489E+15  0.1268895605E+02 -0.2604003577E-15 -0.3624291516E+01
  0.1742953697E+01  0.1000000000E+01  0.1429536967E+00  0.9967728754E+01 -0.2836931438E-16 -0.4060394938E+01  0.6573625489E+15  0.9969411865E+01 -0.2871492666E-16 -0.4070591053E+01
  0.1646988935E+01  0.1000000000E+01  0.1429536967E+00  0.9334905936E+01 -0.1598179811E-15 -0.2045316392E+01  0.6573625489E+15  0.9331782114E+01 -0.1595420967E-15 -0.2053371588E+01
  0.1600000000E+01  0.1000000000E+01  0.1429536967E+00  0.5996858535E+01 -0.2820820172E-15 -0.1792139730E+01  0.6573625489E+15  0.6010781894E+01 -0.2829989392E-15 -0.1804312106E+01
  0.2000000000E+01  0.1000000000E+01  0.2570463033E+00  0.1902076536E-01  0.1121466016E-17  0.4987018240E+02  0.6573625489E+15  0.1803584081E-01  0.1085518306E-17  0.4987522177E+02