TITLE = "Generated from ../MESH/Convergence_0000000000.hmesh and Convergence_0000004300.hsol"
VARIABLES = "x","y","z","veloT_x","veloT_y","veloT_z","slr_4","velo_x","velo_y","velo_z"
ZONE I=6, J=6, K=1, F=POINT
  0.4000000000E+00  0.1000000000E+01  0.0000000000E+00 -0.1259421039E-01  0.2759924262E-19  0.7413197824E-02  0.6559585841E+15 -0.1227299243E-01  0.2768529058E-19  0.7686119876E-02
  0.3530110648E+00  0.1000000000E+01  0.0000000000E+00 -0.1917650999E-02  0.1030325771E-19 -0.2969420831E-03  0.6559585841E+15 -0.1781540166E-02  0.8412043325E-20 -0.1006988786E-03
  0.2570463033E+00  0.1000000000E+01  0.0000000000E+00 -0.4384067867E-03  0.1757270024E-20  0.2323185061E-02  0.6559585841E+15 -0.4063553514E-03  0.1198961551E-20  0.2365169716E-02
  0.1429536967E+00  0.1000000000E+01  0.0000000000E+00 -0.1621580677E-02  0.3708926688E-21 -0.1046444857E-02  0.6559585841E+15 -0.1708565933E-02  0.2400892677E-21 -0.1087241003E-02
  0.4698893521E-01  0.1000000000E+01  0.0000000000E+00  0.1226337536E-02 -0.2272662524E-20  0.2005060773E-02  0.6559585841E+15  0.1039259853E-02 -0.2487231983E-20  0.2048866013E-02
  0.0000000000E+00  0.1000000000E+01  0.0000000000E+00 -0.7547711006E-02  0.1561396272E-22  0.2096419450E-02  0.6559585841E+15 -0.7592626205E-02  0.1449085142E-22  0.2136482226E-02
  0.4000000000E+00  0.1000000000E+01  0.4698893521E-01  0.2637935495E+00  0.2985980166E-17 -0.4545728554E-01  0.6559585841E+15  0.2635016413E+00  0.2988116895E-17 -0.4618028429E-01
  0.3530110648E+00  0.1000000000E+01  0.4698893521E-01  0.1246284801E+00  0.2706922914E-17 -0.6787745987E-02  0.6559585841E+15  0.1227159181E+00  0.2727513118E-17 -0.7299280372E-02
  0.2570463033E+00  0.1000000000E+01  0.4698893521E-01  0.9830351321E-01  0.1065467090E-17 -0.1495859014E-01  0.6559585841E+15  0.9663935935E-01  0.1070058130E-17 -0.1337807356E-01
  0.1429536967E+00  0.1000000000E+01  0.4698893521E-01  0.4837205939E-02  0.2773505116E-18 -0.7872007933E-02  0.6559585841E+15  0.2914623925E-02  0.2731168751E-18 -0.6321762782E-02
  0.4698893521E-01  0.1000000000E+01  0.4698893521E-01 -0.1217590797E-02  0.5819081376E-19 -0.8056436283E-02  0.6559585841E+15 -0.3374120959E-02  0.5558596370E-19 -0.6444885687E-02
  0.0000000000E+00  0.1000000000E+01  0.4698893521E-01 -0.1811242469E-01  0.9629758195E-21  0.2922494463E-02  0.6559585841E+15 -0.1819696284E-01  0.1001643560E-20  0.3129524991E-02
  0.4000000000E+00  0.1000000000E+01  0.1429536967E+00  0.5912701803E+00  0.9566244243E-17 -0.1319689893E+00  0.6559585841E+15  0.5948838006E+00  0.9616118925E-17 -0.1111025060E+00
  0.3530110648E+00  0.1000000000E+01  0.1429536967E+00  0.3306382889E+00  0.6018912948E-17 -0.1689449068E+00  0.6559585841E+15  0.3293396021E+00  0.5899840307E-17 -0.1506677437E+00
  0.2570463033E+00  0.1000000000E+01  0.1429536967E+00  0.2320910448E+00  0.2381808814E-17 -0.1063143620E+00  0.6559585841E+15  0.2321962338E+00  0.2390315831E-17 -0.9325885278E-01
  0.1429536967E+00  0.1000000000E+01  0.1429536967E+00  0.3814670765E-01  0.8813122924E-18 -0.1139677908E+00  0.6559585841E+15  0.3888666843E-01  0.8851693406E-18 -0.1078889062E+00
  0.4698893521E-01  0.1000000000E+01  0.1429536967E+00 -0.4173391069E-02  0.2101562944E-18 -0.9188574980E-02  0.6559585841E+15 -0.6038508257E-02  0.1973814204E-18 -0.6434206252E-02
  0.0000000000E+00  0.1000000000E+01  0.1429536967E+00 -0.2138576448E-01  0.2868909949E-21 -0.4461918529E-03  0.6559585841E+15 -0.2129898725E-01  0.2375949943E-21 -0.1980935508E-03
  0.4000000000E+00  0.1000000000E+01  0.2570463033E+00  0.6834493333E+00  0.3598739141E-17 -0.4061321622E+00  0.6559585841E+15  0.6977618532E+00  0.3613345992E-17 -0.3616970689E+00
  0.3530110648E+00  0.1000000000E+01  0.2570463033E+00  0.5004932503E+00  0.2327868697E-17 -0.4470975125E+00  0.6559585841E+15  0.5120333679E+00  0.2860102405E-17 -0.4100305392E+00
  0.2570463033E+00  0.1000000000E+01  0.2570463033E+00  0.3029971253E+00  0.2008361369E-17 -0.3122488639E+00  0.6559585841E+15  0.3155390907E+00  0.2003594199E-17 -0.2902761024E+00
  0.1429536967E+00  0.1000000000E+01  0.2570463033E+00  0.8792403946E-01  0.1509519135E-17 -0.2865807644E+00  0.6559585841E+15  0.9718917547E-01  0.1506650860E-17 -0.2779086427E+00
  0.4698893521E-01  0.1000000000E+01  0.2570463033E+00  0.1123152063E-01  0.1038795330E-17 -0.5085979647E-01  0.6559585841E+15  0.1249380178E-01  0.1072564753E-17 -0.4824447026E-01
  0.0000000000E+00  0.1000000000E+01  0.2570463033E+00 -0.1413980374E-01 -0.4796413543E-20 -0.5396288011E-03  0.6559585841E+15 -0.1403090328E-01 -0.4160162885E-20 -0.3276986220E-03
  0.4000000000E+00  0.1000000000E+01  0.3530110648E+00  0.7212522865E+00  0.4106333310E-17 -0.6836087040E+00  0.6559585841E+15  0.7519466100E+00  0.4084436325E-17 -0.6380566409E+00
  0.3530110648E+00  0.1000000000E+01  0.3530110648E+00  0.5201987501E+00  0.3632321872E-17 -0.6883310171E+00  0.6559585841E+15  0.5484722426E+00  0.3642007814E-17 -0.6508567886E+00
  0.2570463033E+00  0.1000000000E+01  0.3530110648E+00  0.3072977885E+00  0.2198317541E-17 -0.5255159213E+00  0.6559585841E+15  0.3339923665E+00  0.1872949203E-17 -0.5029130087E+00
  0.1429536967E+00  0.1000000000E+01  0.3530110648E+00  0.8647239484E-01  0.2049959938E-17 -0.4284246836E+00  0.6559585841E+15  0.1044805192E+00  0.1976070528E-17 -0.4196354014E+00
  0.4698893521E-01  0.1000000000E+01  0.3530110648E+00  0.1249348966E-01  0.6105366593E-18 -0.1134524210E+00  0.6559585841E+15  0.1696919726E-01  0.5859677070E-18 -0.1106484143E+00
  0.0000000000E+00  0.1000000000E+01  0.3530110648E+00 -0.1443513766E-01  0.4521210708E-20 -0.6115382332E-03  0.6559585841E+15 -0.1436178387E-01  0.5222698090E-20 -0.3959932847E-03
  0.4000000000E+00  0.1000000000E+01  0.4000000000E+00  0.7025391011E+00  0.6234424202E-17 -0.8206480527E+00  0.6559585841E+15  0.7416598848E+00  0.6234324814E-17 -0.7775869215E+00
  0.3530110648E+00  0.1000000000E+01  0.4000000000E+00  0.5487267886E+00  0.5514076722E-17 -0.8190911039E+00  0.6559585841E+15  0.5838909309E+00  0.5425478475E-17 -0.7818434874E+00
  0.2570463033E+00  0.1000000000E+01  0.4000000000E+00  0.3050170833E+00  0.2063898098E-17 -0.6368046647E+00  0.6559585841E+15  0.3383131137E+00  0.2173670662E-17 -0.6123990578E+00
  0.1429536967E+00  0.1000000000E+01  0.4000000000E+00  0.9241473688E-01  0.2177057873E-17 -0.5035122172E+00  0.6559585841E+15  0.1150032439E+00  0.2266537007E-17 -0.4939595558E+00
  0.4698893521E-01  0.1000000000E+01  0.4000000000E+00  0.8413282305E-02  0.6043456789E-18 -0.1427087287E+00  0.6559585841E+15  0.1423392982E-01  0.5929781729E-18 -0.1394895678E+00
  0.0000000000E+00  0.1000000000E+01  0.4000000000E+00 -0.7046773215E-02  0.8625761241E-20 -0.1898587125E-02  0.6559585841E+15 -0.6758641589E-02  0.8600258142E-20 -0.1644214606E-02
ZONE I=6, J=6, K=1, F=POINT
  0.8000000000E+00  0.1000000000E+01  0.0000000000E+00  0.1609619620E-01 -0.8483145304E-19 -0.1157763669E-01  0.6559585841E+15  0.1705282025E-01 -0.8801275386E-19 -0.1142755104E-01
  0.7530110648E+00  0.1000000000E+01  0.0000000000E+00  0.5304648658E-03  0.4867474862E-19  0.6043021896E-02  0.6559585841E+15  0.1535396376E-02  0.6646807635E-19  0.5966149247E-02
  0.6570463033E+00  0.1000000000E+01  0.0000000000E+00 -0.1629197266E-02  0.7191549632E-20  0.2825943755E-03  0.6559585841E+15 -0.9481953212E-03  0.1511779965E-19  0.2357046522E-03
  0.5429536967E+00  0.1000000000E+01  0.0000000000E+00 -0.3000561021E-03 -0.1255801044E-20  0.6835864777E-02  0.6559585841E+15  0.8554116267E-04  0.5894356236E-20  0.6800160930E-02
  0.4469889352E+00  0.1000000000E+01  0.0000000000E+00 -0.2846938933E-02 -0.6376555981E-19  0.5151239626E-03  0.6559585841E+15 -0.2585614027E-02 -0.5935061873E-19  0.6709308528E-03
  0.4000000000E+00  0.1000000000E+01  0.0000000000E+00  0.1418082386E-01  0.3126300665E-19  0.7109585455E-02  0.6559585841E+15  0.1440738571E-01  0.3140698272E-19  0.7379794078E-02
  0.8000000000E+00  0.1000000000E+01  0.4698893521E-01  0.3233195362E+00 -0.2387554497E-16  0.2209133913E-01  0.6559585841E+15  0.3226866504E+00 -0.2386149666E-16  0.2747837611E-01
  0.7530110648E+00  0.1000000000E+01  0.4698893521E-01  0.5193400245E+00 -0.2326452948E-16 -0.3998573877E-01  0.6559585841E+15  0.5182171576E+00 -0.2320865826E-16 -0.3302358012E-01
  0.6570463033E+00  0.1000000000E+01  0.4698893521E-01  0.2998975776E+00 -0.4737500405E-17 -0.1630961507E-01  0.6559585841E+15  0.2992895525E+00 -0.4730549475E-17 -0.5848130959E-02
  0.5429536967E+00  0.1000000000E+01  0.4698893521E-01  0.3297078416E+00  0.4204070126E-17 -0.8296368669E-02  0.6559585841E+15  0.3301176638E+00  0.4216428214E-17 -0.2177647541E-03
  0.4469889352E+00  0.1000000000E+01  0.4698893521E-01  0.2021220700E+00  0.3916948507E-17 -0.1248053112E-02  0.6559585841E+15  0.2022685037E+00  0.3914045034E-17  0.5643796334E-03
  0.4000000000E+00  0.1000000000E+01  0.4698893521E-01  0.3058366737E+00  0.2744940596E-17 -0.4621909991E-01  0.6559585841E+15  0.3056329856E+00  0.2746555596E-17 -0.4693689214E-01
  0.8000000000E+00  0.1000000000E+01  0.1429536967E+00  0.1052802436E+01 -0.5450920762E-16 -0.3685997363E+00  0.6559585841E+15  0.1047505775E+01 -0.5463908950E-16 -0.3385736230E+00
  0.7530110648E+00  0.1000000000E+01  0.1429536967E+00  0.1350590597E+01 -0.3452406977E-16 -0.2250277499E+00  0.6559585841E+15  0.1344818283E+01 -0.3470295721E-16 -0.1922768306E+00
  0.6570463033E+00  0.1000000000E+01  0.1429536967E+00  0.9046571002E+00 -0.4220914991E-17 -0.2203697151E+00  0.6559585841E+15  0.9029541255E+00 -0.4127754744E-17 -0.1853266430E+00
  0.5429536967E+00  0.1000000000E+01  0.1429536967E+00  0.8286298654E+00  0.9254650266E-17 -0.7672869710E-01  0.6559585841E+15  0.8353450639E+00  0.9466801801E-17 -0.4476524363E-01
  0.4469889352E+00  0.1000000000E+01  0.1429536967E+00  0.5253887295E+00  0.9549515429E-17 -0.1566488650E+00  0.6559585841E+15  0.5337068412E+00  0.9373614935E-17 -0.1324294024E+00
  0.4000000000E+00  0.1000000000E+01  0.1429536967E+00  0.6422822065E+00  0.1026956026E-16 -0.1314220166E+00  0.6559585841E+15  0.6463476513E+00  0.1032942247E-16 -0.1105561113E+00
  0.8000000000E+00  0.1000000000E+01  0.2570463033E+00  0.2067301096E+01 -0.1440490480E-16 -0.9406418936E+00  0.6559585841E+15  0.2052570363E+01 -0.1443172776E-16 -0.8939455573E+00
  0.7530110648E+00  0.1000000000E+01  0.2570463033E+00  0.1936082717E+01 -0.1085285092E-16 -0.6857810133E+00  0.6559585841E+15  0.1925251933E+01 -0.1007909195E-16 -0.6353445780E+00
  0.6570463033E+00  0.1000000000E+01  0.2570463033E+00  0.1460192021E+01 -0.4272848937E-17 -0.6184424658E+00  0.6559585841E+15  0.1458299415E+01 -0.4230079569E-17 -0.5649614285E+00
  0.5429536967E+00  0.1000000000E+01  0.2570463033E+00  0.1108235722E+01  0.2358681855E-17 -0.3564295154E+00  0.6559585841E+15  0.1119610218E+01  0.2533494178E-17 -0.3036687597E+00
  0.4469889352E+00  0.1000000000E+01  0.2570463033E+00  0.7667184170E+00  0.3142944850E-17 -0.4561662992E+00  0.6559585841E+15  0.7835109961E+00  0.3761475643E-17 -0.4073535911E+00
  0.4000000000E+00  0.1000000000E+01  0.2570463033E+00  0.7138286599E+00  0.3623385033E-17 -0.4054797251E+00  0.6559585841E+15  0.7275328216E+00  0.3638546527E-17 -0.3610941382E+00
  0.8000000000E+00  0.1000000000E+01  0.3530110648E+00  0.2289085580E+01  0.3871459278E-18 -0.1414635935E+01  0.6559585841E+15  0.2264210396E+01  0.4107560325E-18 -0.1367591071E+01
  0.7530110648E+00  0.1000000000E+01  0.3530110648E+00  0.2183775561E+01  0.5628685699E-17 -0.1192943396E+01  0.6559585841E+15  0.2165425468E+01  0.4609540093E-17 -0.1141079470E+01
  0.6570463033E+00  0.1000000000E+01  0.3530110648E+00  0.1659879740E+01 -0.1024431423E-17 -0.1010215440E+01  0.6559585841E+15  0.1655235374E+01 -0.1701471574E-17 -0.9512280417E+00
  0.5429536967E+00  0.1000000000E+01  0.3530110648E+00  0.1227974852E+01 -0.9383817544E-18 -0.7002986325E+00  0.6559585841E+15  0.1241262831E+01 -0.2267036151E-17 -0.6394356559E+00
  0.4469889352E+00  0.1000000000E+01  0.3530110648E+00  0.8028263005E+00  0.3932190227E-17 -0.7315833224E+00  0.6559585841E+15  0.8287005715E+00  0.3522428440E-17 -0.6780355502E+00
  0.4000000000E+00  0.1000000000E+01  0.3530110648E+00  0.7540180060E+00  0.4084149949E-17 -0.6834019941E+00  0.6559585841E+15  0.7838109553E+00  0.4059851430E-17 -0.6378581557E+00
  0.8000000000E+00  0.1000000000E+01  0.4000000000E+00  0.2381774921E+01 -0.5252148713E-17 -0.1700755861E+01  0.6559585841E+15  0.2351699035E+01 -0.5243214830E-17 -0.1649135566E+01
  0.7530110648E+00  0.1000000000E+01  0.4000000000E+00  0.2150587949E+01 -0.1752085245E-17 -0.1416222450E+01  0.6559585841E+15  0.2128246768E+01 -0.2012744149E-17 -0.1360025360E+01
  0.6570463033E+00  0.1000000000E+01  0.4000000000E+00  0.1675423697E+01 -0.2928986266E-18 -0.1219748812E+01  0.6559585841E+15  0.1667912259E+01 -0.6583276741E-20 -0.1156704362E+01
  0.5429536967E+00  0.1000000000E+01  0.4000000000E+00  0.1216971394E+01  0.6070987864E-17 -0.9178039247E+00  0.6559585841E+15  0.1231982379E+01  0.7050830715E-17 -0.8529275637E+00
  0.4469889352E+00  0.1000000000E+01  0.4000000000E+00  0.8567189861E+00  0.6581837529E-17 -0.8955733243E+00  0.6559585841E+15  0.8904189748E+00  0.7109401746E-17 -0.8432252474E+00
  0.4000000000E+00  0.1000000000E+01  0.4000000000E+00  0.7141948484E+00  0.6258167759E-17 -0.8198878301E+00  0.6559585841E+15  0.7530572084E+00  0.6256079608E-17 -0.7768708412E+00
ZONE I=6, J=6, K=1, F=POINT
  0.1200000000E+01  0.1000000000E+01  0.0000000000E+00 -0.3429431085E-01  0.5597259928E-19  0.3670394282E-01  0.6559585841E+15 -0.3252010042E-01  0.5737999785E-19  0.3689803140E-01
  0.1153011065E+01  0.1000000000E+01  0.0000000000E+00 -0.6865226659E-02 -0.3047744816E-18 -0.9821022826E-02  0.6559585841E+15 -0.5485797443E-02 -0.2516651246E-18 -0.9781154150E-02
  0.1057046303E+01  0.1000000000E+01  0.0000000000E+00  0.4984023541E-03 -0.2305749517E-19  0.5883722723E-02  0.6559585841E+15  0.1523039046E-02  0.2638369797E-20  0.5793432318E-02
  0.9429536967E+00  0.1000000000E+01  0.0000000000E+00 -0.4110649305E-02  0.3642661649E-20 -0.8389379668E-02  0.6559585841E+15 -0.3330006284E-02  0.1148581940E-20 -0.8403187903E-02
  0.8469889352E+00  0.1000000000E+01  0.0000000000E+00  0.1647159447E-02 -0.2033870045E-19  0.5363126352E-02  0.6559585841E+15  0.2249705207E-02 -0.2383156912E-19  0.5346570725E-02
  0.8000000000E+00  0.1000000000E+01  0.0000000000E+00 -0.2886403278E-01 -0.9452566599E-19 -0.1102679182E-01  0.6559585841E+15 -0.2838241764E-01 -0.9793378161E-19 -0.1089844541E-01
  0.1200000000E+01  0.1000000000E+01  0.4698893521E-01  0.2181400346E+01 -0.4187537117E-16 -0.1955104756E+00  0.6559585841E+15  0.2182868115E+01 -0.4192170144E-16 -0.2026233654E+00
  0.1153011065E+01  0.1000000000E+01  0.4698893521E-01  0.1494152076E+01 -0.2634488284E-16 -0.5023816408E-01  0.6559585841E+15  0.1493378912E+01 -0.2631472351E-16 -0.5515423969E-01
  0.1057046303E+01  0.1000000000E+01  0.4698893521E-01  0.1357150904E+01 -0.1274400505E-16 -0.8755776672E-01  0.6559585841E+15  0.1355322826E+01 -0.1276214127E-16 -0.8578257480E-01
  0.9429536967E+00  0.1000000000E+01  0.4698893521E-01  0.7494951787E+00 -0.1495775963E-16 -0.7386080462E-01  0.6559585841E+15  0.7483927735E+00 -0.1492048701E-16 -0.6895420534E-01
  0.8469889352E+00  0.1000000000E+01  0.4698893521E-01  0.6498555530E+00 -0.2781601459E-16 -0.6607578304E-01  0.6559585841E+15  0.6482977849E+00 -0.2775110758E-16 -0.6126738466E-01
  0.8000000000E+00  0.1000000000E+01  0.4698893521E-01  0.2629663811E+00 -0.2318420186E-16  0.2415013869E-01  0.6559585841E+15  0.2614732607E+00 -0.2316502411E-16  0.2948883654E-01
  0.1200000000E+01  0.1000000000E+01  0.1429536967E+00  0.5043919868E+01 -0.5870692533E-16 -0.6218682978E+00  0.6559585841E+15  0.5046845750E+01 -0.5866787757E-16 -0.6183641702E+00
  0.1153011065E+01  0.1000000000E+01  0.1429536967E+00  0.3594551080E+01 -0.6865444992E-16 -0.8283700795E+00  0.6559585841E+15  0.3587828163E+01 -0.6911393312E-16 -0.8226906712E+00
  0.1057046303E+01  0.1000000000E+01  0.1429536967E+00  0.3211065102E+01 -0.3980897253E-16 -0.6142135532E+00  0.6559585841E+15  0.3202456703E+01 -0.3978731993E-16 -0.6021772603E+00
  0.9429536967E+00  0.1000000000E+01  0.1429536967E+00  0.1954361715E+01 -0.3531614208E-16 -0.7258739971E+00  0.6559585841E+15  0.1949895350E+01 -0.3529428255E-16 -0.7050702950E+00
  0.8469889352E+00  0.1000000000E+01  0.1429536967E+00  0.1676814196E+01 -0.5095779199E-16 -0.3860467415E+00  0.6559585841E+15  0.1672477864E+01 -0.5099215368E-16 -0.3586782952E+00
  0.8000000000E+00  0.1000000000E+01  0.1429536967E+00  0.9695403213E+00 -0.5671455076E-16 -0.3702101833E+00  0.6559585841E+15  0.9653489028E+00 -0.5687572163E-16 -0.3401692800E+00
  0.1200000000E+01  0.1000000000E+01  0.2570463033E+00  0.5244416616E+01 -0.7499818813E-17 -0.1744082213E+01  0.6559585841E+15  0.5239362621E+01 -0.7435559147E-17 -0.1732101466E+01
  0.1153011065E+01  0.1000000000E+01  0.2570463033E+00  0.4719822653E+01 -0.4100972237E-16 -0.1987313570E+01  0.6559585841E+15  0.4707200269E+01 -0.3938868808E-16 -0.1973536801E+01
  0.1057046303E+01  0.1000000000E+01  0.2570463033E+00  0.3899509518E+01 -0.3385305490E-16 -0.1586109963E+01  0.6559585841E+15  0.3883644563E+01 -0.3388964313E-16 -0.1566388650E+01
  0.9429536967E+00  0.1000000000E+01  0.2570463033E+00  0.2951558450E+01 -0.3269331139E-16 -0.1634720981E+01  0.6559585841E+15  0.2935868669E+01 -0.3184040034E-16 -0.1606061754E+01
  0.8469889352E+00  0.1000000000E+01  0.2570463033E+00  0.2422994496E+01 -0.1618234873E-16 -0.1013435313E+01  0.6559585841E+15  0.2407055671E+01 -0.1618878684E-16 -0.9727828796E+00
  0.8000000000E+00  0.1000000000E+01  0.2570463033E+00  0.2029336917E+01 -0.1456974729E-16 -0.9431546922E+00  0.6559585841E+15  0.2015574052E+01 -0.1457520918E-16 -0.8961000675E+00
  0.1200000000E+01  0.1000000000E+01  0.3530110648E+00  0.5465220948E+01  0.3145226643E-16 -0.2888518397E+01  0.6559585841E+15  0.5456844996E+01  0.3148187554E-16 -0.2874191404E+01
  0.1153011065E+01  0.1000000000E+01  0.3530110648E+00  0.4756674227E+01  0.1128297509E-16 -0.2804432912E+01  0.6559585841E+15  0.4737370936E+01  0.1156378561E-16 -0.2787404301E+01
  0.1057046303E+01  0.1000000000E+01  0.3530110648E+00  0.4056625911E+01 -0.9630962569E-17 -0.2418107395E+01  0.6559585841E+15  0.4035101194E+01 -0.9924961462E-17 -0.2395367414E+01
  0.9429536967E+00  0.1000000000E+01  0.3530110648E+00  0.3146553609E+01 -0.1680001984E-16 -0.2207969723E+01  0.6559585841E+15  0.3122077966E+01 -0.1622806137E-16 -0.2177699434E+01
  0.8469889352E+00  0.1000000000E+01  0.3530110648E+00  0.2707479306E+01 -0.2364043276E-17 -0.1603271409E+01  0.6559585841E+15  0.2677903357E+01 -0.3578622994E-17 -0.1562179056E+01
  0.8000000000E+00  0.1000000000E+01  0.3530110648E+00  0.2242174570E+01  0.4363288443E-18 -0.1414903869E+01  0.6559585841E+15  0.2217969024E+01  0.4752442057E-18 -0.1367889106E+01
  0.1200000000E+01  0.1000000000E+01  0.4000000000E+00  0.5149385560E+01  0.3753475823E-16 -0.3200154776E+01  0.6559585841E+15  0.5137986505E+01  0.3755308374E-16 -0.3170219486E+01
  0.1153011065E+01  0.1000000000E+01  0.4000000000E+00  0.4803592312E+01  0.2833199509E-16 -0.3299278837E+01  0.6559585841E+15  0.4782855834E+01  0.2791013152E-16 -0.3270611664E+01
  0.1057046303E+01  0.1000000000E+01  0.4000000000E+00  0.3971971561E+01  0.2039968350E-17 -0.2782182413E+01  0.6559585841E+15  0.3948448605E+01  0.1995995531E-17 -0.2754240125E+01
  0.9429536967E+00  0.1000000000E+01  0.4000000000E+00  0.3192952152E+01 -0.1535932677E-16 -0.2545021915E+01  0.6559585841E+15  0.3163570807E+01 -0.1444232974E-16 -0.2507531567E+01
  0.8469889352E+00  0.1000000000E+01  0.4000000000E+00  0.2646148174E+01 -0.9959557908E-17 -0.1857248075E+01  0.6559585841E+15  0.2611600778E+01 -0.1038533491E-16 -0.1809704730E+01
  0.8000000000E+00  0.1000000000E+01  0.4000000000E+00  0.2376880252E+01 -0.5234468730E-17 -0.1704071864E+01  0.6559585841E+15  0.2347648935E+01 -0.5220232228E-17 -0.1652078862E+01
ZONE I=6, J=6, K=1, F=POINT
  0.1600000000E+01  0.1000000000E+01  0.0000000000E+00  0.1283535288E+00 -0.9185835940E-18 -0.7249261095E-01  0.6559585841E+15  0.1300571145E+00 -0.1037297953E-17 -0.7183868458E-01
  0.1553011065E+01  0.1000000000E+01  0.0000000000E+00  0.7542680044E-02 -0.1173596424E-17  0.4510709729E-01  0.6559585841E+15  0.1048002949E-01 -0.1341097712E-17  0.4509336222E-01
  0.1457046303E+01  0.1000000000E+01  0.0000000000E+00 -0.1038526524E-01 -0.1938819668E-19 -0.3219998247E-02  0.6559585841E+15 -0.7493186029E-02 -0.1087059113E-18 -0.3200283285E-02
  0.1342953697E+01  0.1000000000E+01  0.0000000000E+00  0.1927192470E-02  0.2156746437E-18  0.2982685072E-01  0.6559585841E+15  0.4707142396E-02  0.3702810192E-18  0.2967734067E-01
  0.1246988935E+01  0.1000000000E+01  0.0000000000E+00 -0.1107996365E-01  0.1174980421E-18 -0.8229751238E-02  0.6559585841E+15 -0.8388873081E-02  0.1333897729E-18 -0.8214364733E-02
  0.1200000000E+01  0.1000000000E+01  0.0000000000E+00  0.5499676126E-01  0.5937933616E-19  0.3674384241E-01  0.6559585841E+15  0.5710736943E-01  0.6130702744E-19  0.3695382020E-01
  0.1600000000E+01  0.1000000000E+01  0.4698893521E-01  0.2990895241E+01 -0.8821767103E-16  0.2198982023E+00  0.6559585841E+15  0.2991817162E+01 -0.8824689094E-16  0.2145420196E+00
  0.1553011065E+01  0.1000000000E+01  0.4698893521E-01  0.3474788772E+01 -0.4425649041E-16 -0.2818538006E+00  0.6559585841E+15  0.3478602180E+01 -0.4412822414E-16 -0.2868229200E+00
  0.1457046303E+01  0.1000000000E+01  0.4698893521E-01  0.2496000661E+01 -0.4255025111E-17 -0.8953628491E-01  0.6559585841E+15  0.2499490297E+01 -0.4361690199E-17 -0.9165196137E-01
  0.1342953697E+01  0.1000000000E+01  0.4698893521E-01  0.2486259980E+01  0.2853970795E-16 -0.5828014414E-01  0.6559585841E+15  0.2489872492E+01  0.2856831170E-16 -0.6012980159E-01
  0.1246988935E+01  0.1000000000E+01  0.4698893521E-01  0.1910644634E+01 -0.7490303765E-17 -0.2199807553E-01  0.6559585841E+15  0.1914108490E+01 -0.7327027531E-17 -0.2813017512E-01
  0.1200000000E+01  0.1000000000E+01  0.4698893521E-01  0.2279196308E+01 -0.4606267222E-16 -0.2011811448E+00  0.6559585841E+15  0.2278997206E+01 -0.4609574641E-16 -0.2079123379E+00
  0.1600000000E+01  0.1000000000E+01  0.1429536967E+00  0.6316823927E+01 -0.2667658697E-15 -0.1830184316E+01  0.6559585841E+15  0.6300735789E+01 -0.2667449729E-15 -0.1835043162E+01
  0.1553011065E+01  0.1000000000E+01  0.1429536967E+00  0.7990111214E+01 -0.1421759185E-15 -0.9924816821E+00  0.6559585841E+15  0.7989109859E+01 -0.1422953021E-15 -0.9949111203E+00
  0.1457046303E+01  0.1000000000E+01  0.1429536967E+00  0.5906262534E+01  0.3118332429E-16 -0.9618443025E+00  0.6559585841E+15  0.5907717141E+01  0.3109063721E-16 -0.9600723104E+00
  0.1342953697E+01  0.1000000000E+01  0.1429536967E+00  0.5847310259E+01  0.1001964775E-15 -0.2197731233E+00  0.6559585841E+15  0.5852947363E+01  0.1004209747E-15 -0.2181681902E+00
  0.1246988935E+01  0.1000000000E+01  0.1429536967E+00  0.4484056860E+01  0.2708872968E-16 -0.7515448014E+00  0.6559585841E+15  0.4489712473E+01  0.2680113485E-16 -0.7489339645E+00
  0.1200000000E+01  0.1000000000E+01  0.1429536967E+00  0.5209422698E+01 -0.6285845162E-16 -0.6164742712E+00  0.6559585841E+15  0.5202642883E+01 -0.6272681097E-16 -0.6136576521E+00
  0.1600000000E+01  0.1000000000E+01  0.2570463033E+00  0.1116066659E+02  0.1015605639E-15 -0.3742525252E+01  0.6559585841E+15  0.1116511796E+02  0.1014943791E-15 -0.3733516324E+01
  0.1553011065E+01  0.1000000000E+01  0.2570463033E+00  0.1005256086E+02  0.1249205169E-15 -0.2648565203E+01  0.6559585841E+15  0.1005006447E+02  0.1249991586E-15 -0.2634341285E+01
  0.1457046303E+01  0.1000000000E+01  0.2570463033E+00  0.8629681635E+01  0.1850386495E-15 -0.2488415353E+01  0.6559585841E+15  0.8631137557E+01  0.1850110914E-15 -0.2474964348E+01
  0.1342953697E+01  0.1000000000E+01  0.2570463033E+00  0.6959348953E+01  0.1322220729E-15 -0.1286520933E+01  0.6559585841E+15  0.6967547742E+01  0.1326660400E-15 -0.1275355719E+01
  0.1246988935E+01  0.1000000000E+01  0.2570463033E+00  0.5708657510E+01  0.4165153621E-16 -0.1983476316E+01  0.6559585841E+15  0.5711029273E+01  0.4190819053E-16 -0.1972480252E+01
  0.1200000000E+01  0.1000000000E+01  0.2570463033E+00  0.5284391252E+01 -0.7790753833E-17 -0.1734742347E+01  0.6559585841E+15  0.5279332916E+01 -0.7706073396E-17 -0.1725380715E+01
  0.1600000000E+01  0.1000000000E+01  0.3530110648E+00  0.9557692906E+01  0.2017070790E-15 -0.4333398517E+01  0.6559585841E+15  0.9553118217E+01  0.2016345849E-15 -0.4308591141E+01
  0.1553011065E+01  0.1000000000E+01  0.3530110648E+00  0.9702234512E+01  0.2076845447E-15 -0.4239660350E+01  0.6559585841E+15  0.9701780893E+01  0.2076687781E-15 -0.4216959625E+01
  0.1457046303E+01  0.1000000000E+01  0.3530110648E+00  0.8411096463E+01  0.1983588652E-15 -0.3759044537E+01  0.6559585841E+15  0.8415318114E+01  0.1982653886E-15 -0.3740763431E+01
  0.1342953697E+01  0.1000000000E+01  0.3530110648E+00  0.7070365760E+01  0.1503823434E-15 -0.2858245427E+01  0.6559585841E+15  0.7081357346E+01  0.1505805116E-15 -0.2841780942E+01
  0.1246988935E+01  0.1000000000E+01  0.3530110648E+00  0.5649664836E+01  0.6436253695E-16 -0.2965344867E+01  0.6559585841E+15  0.5654636333E+01  0.6418229576E-16 -0.2951096284E+01
  0.1200000000E+01  0.1000000000E+01  0.3530110648E+00  0.5542305192E+01  0.3155445054E-16 -0.2888999710E+01  0.6559585841E+15  0.5530786032E+01  0.3156166246E-16 -0.2874316367E+01
  0.1600000000E+01  0.1000000000E+01  0.4000000000E+00  0.9695321722E+01  0.2029288320E-15 -0.5091534879E+01  0.6559585841E+15  0.9693936794E+01  0.2028554154E-15 -0.5078771745E+01
  0.1553011065E+01  0.1000000000E+01  0.4000000000E+00  0.8983176966E+01  0.2202773008E-15 -0.4311010638E+01  0.6559585841E+15  0.8985995348E+01  0.2203924975E-15 -0.4295547023E+01
  0.1457046303E+01  0.1000000000E+01  0.4000000000E+00  0.8261907650E+01  0.1926745183E-15 -0.4338800581E+01  0.6559585841E+15  0.8266372647E+01  0.1928198168E-15 -0.4323101850E+01
  0.1342953697E+01  0.1000000000E+01  0.4000000000E+00  0.6771286368E+01  0.1578509492E-15 -0.3287281925E+01  0.6559585841E+15  0.6783141829E+01  0.1585911020E-15 -0.3271823110E+01
  0.1246988935E+01  0.1000000000E+01  0.4000000000E+00  0.5720299271E+01  0.6493050154E-16 -0.3542741244E+01  0.6559585841E+15  0.5722731201E+01  0.6482631799E-16 -0.3516891718E+01
  0.1200000000E+01  0.1000000000E+01  0.4000000000E+00  0.5123532542E+01  0.3778533012E-16 -0.3188286133E+01  0.6559585841E+15  0.5112783025E+01  0.3779114166E-16 -0.3160948113E+01
ZONE I=6, J=6, K=1, F=POINT
  0.2000000000E+01  0.1000000000E+01  0.0000000000E+00  0.2401935600E+01  0.7357433581E-19  0.2123378475E+02  0.6559585841E+15  0.2430040141E+01  0.9453458048E-19  0.2215512774E+02
  0.1953011065E+01  0.1000000000E+01  0.0000000000E+00  0.1290459351E+01 -0.3732096851E-16 -0.1378390185E+00  0.6559585841E+15  0.1296106372E+01 -0.3609876431E-16 -0.1506654010E+00
  0.1857046303E+01  0.1000000000E+01  0.0000000000E+00 -0.3081776303E+00 -0.1888798150E-16  0.1519608738E+00  0.6559585841E+15 -0.3068649415E+00 -0.1927050053E-16  0.1504617812E+00
  0.1742953697E+01  0.1000000000E+01  0.0000000000E+00  0.1329453855E+00  0.2156762037E-18 -0.3725403167E-01  0.6559585841E+15  0.1350499383E+00  0.1106887249E-18 -0.3699183854E-01
  0.1646988935E+01  0.1000000000E+01  0.0000000000E+00 -0.1290458173E+00  0.3291379603E-18  0.6045361256E-01  0.6559585841E+15 -0.1270685672E+00  0.2914859999E-18  0.5960257193E-01
  0.1600000000E+01  0.1000000000E+01  0.0000000000E+00  0.8655190026E-01 -0.9973903462E-18 -0.8459197738E-01  0.6559585841E+15  0.8796154176E-01 -0.1118403952E-17 -0.8255626625E-01
  0.2000000000E+01  0.1000000000E+01  0.4698893521E-01 -0.1256300050E-01  0.7461032108E-18  0.4848128856E+02  0.6559585841E+15 -0.5506292901E-01  0.6856730582E-18  0.4865807712E+02
  0.1953011065E+01  0.1000000000E+01  0.4698893521E-01  0.1095353644E+02  0.1363201710E-15  0.1458444859E+01  0.6559585841E+15  0.1094453380E+02  0.1351354806E-15  0.1479315264E+01
  0.1857046303E+01  0.1000000000E+01  0.4698893521E-01  0.1163686554E+02  0.2887893050E-15 -0.1893221535E+01  0.6559585841E+15  0.1164325401E+02  0.2893855830E-15 -0.1887572982E+01
  0.1742953697E+01  0.1000000000E+01  0.4698893521E-01  0.5759061590E+01 -0.3971636758E-16 -0.6491661094E+00  0.6559585841E+15  0.5766746412E+01 -0.3938864561E-16 -0.6522038644E+00
  0.1646988935E+01  0.1000000000E+01  0.4698893521E-01  0.4459587564E+01 -0.1215916322E-15 -0.6357928070E+00  0.6559585841E+15  0.4461103190E+01 -0.1218646612E-15 -0.6397860587E+00
  0.1600000000E+01  0.1000000000E+01  0.4698893521E-01  0.2827420118E+01 -0.8538183288E-16  0.2057069235E+00  0.6559585841E+15  0.2837056645E+01 -0.8521648258E-16  0.1950674020E+00
  0.2000000000E+01  0.1000000000E+01  0.1429536967E+00 -0.2815190073E+00  0.2734663393E-17  0.5050161945E+02  0.6559585841E+15 -0.2572500374E+00  0.2757074052E-17  0.5044069037E+02
  0.1953011065E+01  0.1000000000E+01  0.1429536967E+00  0.2785606155E+01 -0.5135372825E-15  0.1638623846E+02  0.6559585841E+15  0.2773517021E+01 -0.5132919329E-15  0.1642770075E+02
  0.1857046303E+01  0.1000000000E+01  0.1429536967E+00  0.1271193681E+02 -0.2599639804E-15 -0.3620673395E+01  0.6559585841E+15  0.1271641764E+02 -0.2604651398E-15 -0.3608639401E+01
  0.1742953697E+01  0.1000000000E+01  0.1429536967E+00  0.9980773555E+01 -0.2542093826E-16 -0.4088221756E+01  0.6559585841E+15  0.9993414105E+01 -0.2470073654E-16 -0.4089575333E+01
  0.1646988935E+01  0.1000000000E+01  0.1429536967E+00  0.9315815794E+01 -0.1596976633E-15 -0.2085058959E+01  0.6559585841E+15  0.9321175167E+01 -0.1593956228E-15 -0.2088304438E+01
  0.1600000000E+01  0.1000000000E+01  0.1429536967E+00  0.5944820164E+01 -0.2833739196E-15 -0.1830210094E+01  0.6559585841E+15  0.5968881425E+01 -0.2837005324E-15 -0.1839663410E+01
  0.2000000000E+01  0.1000000000E+01  0.2570463033E+00  0.1910538084E-01  0.1118171127E-17  0.4987154940E+02  0.6559585841E+15  0.1810269758E-01  0.1079001829E-17  0.4987812608E+02