TITLE = "Generated from ../MESH/Convergence_0000000000.hmesh and Convergence_0000006100.hsol"
VARIABLES = "x","y","z","veloT_x","veloT_y","veloT_z","slr_4","velo_x","velo_y","velo_z"
ZONE I=6, J=6, K=1, F=POINT
  0.4000000000E+00  0.1000000000E+01  0.0000000000E+00 -0.1101035277E-01  0.2745217904E-19  0.7926862897E-02  0.6798320750E+15 -0.1012809597E-01  0.2844511356E-19  0.7355794592E-02
  0.3530110648E+00  0.1000000000E+01  0.0000000000E+00 -0.1088203223E-03  0.8627241586E-20 -0.1766878862E-03  0.6798320750E+15  0.3168542856E-03  0.7993145918E-20 -0.3578338812E-03
  0.2570463033E+00  0.1000000000E+01  0.0000000000E+00  0.1114920007E-02  0.1103275807E-20  0.2398149128E-02  0.6798320750E+15  0.1231886476E-02  0.7112934935E-21  0.2326344699E-02
  0.1429536967E+00  0.1000000000E+01  0.0000000000E+00  0.4548963454E-03  0.2297267974E-21 -0.1099779201E-02  0.6798320750E+15  0.4423906824E-03  0.9366389637E-22 -0.1076159259E-02
  0.4698893521E-01  0.1000000000E+01  0.0000000000E+00  0.3093956997E-02 -0.2426013050E-20  0.1925596215E-02  0.6798320750E+15  0.3037672488E-02 -0.2310320347E-20  0.1860795559E-02
  0.0000000000E+00  0.1000000000E+01  0.0000000000E+00 -0.7441892000E-02  0.1542849369E-22  0.1906545794E-02  0.6798320750E+15 -0.7405408352E-02  0.1282107429E-22  0.1835388540E-02
  0.4000000000E+00  0.1000000000E+01  0.4698893521E-01  0.2697421654E+00  0.3267508129E-17 -0.5342711135E-01  0.6798320750E+15  0.2744536645E+00  0.3241110631E-17 -0.3940971277E-01
  0.3530110648E+00  0.1000000000E+01  0.4698893521E-01  0.1285623800E+00  0.2957188886E-17 -0.1449098566E-01  0.6798320750E+15  0.1330241998E+00  0.2896062851E-17 -0.2828943160E-02
  0.2570463033E+00  0.1000000000E+01  0.4698893521E-01  0.9768821770E-01  0.1247930494E-17 -0.2100128646E-01  0.6798320750E+15  0.1016065927E+00  0.1250201880E-17 -0.1602303347E-01
  0.1429536967E+00  0.1000000000E+01  0.4698893521E-01  0.4257499893E-02  0.3836246125E-18 -0.9619515706E-02  0.6798320750E+15  0.7269620636E-02  0.3910208362E-18 -0.1101621036E-01
  0.4698893521E-01  0.1000000000E+01  0.4698893521E-01 -0.1282969774E-04  0.9397481207E-19 -0.8894926692E-02  0.6798320750E+15  0.1798305993E-02  0.9687335567E-19 -0.1105047293E-01
  0.0000000000E+00  0.1000000000E+01  0.4698893521E-01 -0.1796773390E-01  0.1007503265E-20  0.1302572562E-02  0.6798320750E+15 -0.1788185129E-01  0.9330923316E-21  0.1375282974E-02
  0.4000000000E+00  0.1000000000E+01  0.1429536967E+00  0.6192714470E+00  0.1041021975E-16 -0.1401111231E+00  0.6798320750E+15  0.6280855482E+00  0.1053123886E-16 -0.1210007878E+00
  0.3530110648E+00  0.1000000000E+01  0.1429536967E+00  0.3503938914E+00  0.6710098292E-17 -0.1764076861E+00  0.6798320750E+15  0.3617983999E+00  0.6591685356E-17 -0.1598118014E+00
  0.2570463033E+00  0.1000000000E+01  0.1429536967E+00  0.2366766645E+00  0.2922965100E-17 -0.1102501116E+00  0.6798320750E+15  0.2489556408E+00  0.2932072312E-17 -0.1015761730E+00
  0.1429536967E+00  0.1000000000E+01  0.1429536967E+00  0.3711744954E-01  0.1188826119E-17 -0.1142460223E+00  0.6798320750E+15  0.4432938022E-01  0.1189647007E-17 -0.1133898288E+00
  0.4698893521E-01  0.1000000000E+01  0.1429536967E+00 -0.2624524924E-02  0.3209697939E-18 -0.9178680103E-02  0.6798320750E+15 -0.9586205327E-03  0.3293051083E-18 -0.1098729862E-01
  0.0000000000E+00  0.1000000000E+01  0.1429536967E+00 -0.2149613836E-01  0.2472111626E-21 -0.2555919919E-02  0.6798320750E+15 -0.2149391510E-01 -0.8002337310E-22 -0.2420692167E-02
  0.4000000000E+00  0.1000000000E+01  0.2570463033E+00  0.7567171725E+00  0.4923827567E-17 -0.4239395625E+00  0.6798320750E+15  0.7701564494E+00  0.4938389900E-17 -0.4080565869E+00
  0.3530110648E+00  0.1000000000E+01  0.2570463033E+00  0.5577940808E+00  0.3870391063E-17 -0.4591094213E+00  0.6798320750E+15  0.5764910206E+00  0.4056988417E-17 -0.4462181815E+00
  0.2570463033E+00  0.1000000000E+01  0.2570463033E+00  0.3316825220E+00  0.2807948947E-17 -0.3160865061E+00  0.6798320750E+15  0.3522475871E+00  0.2807240684E-17 -0.3095598707E+00
  0.1429536967E+00  0.1000000000E+01  0.2570463033E+00  0.9892213441E-01  0.1953816784E-17 -0.2844138777E+00  0.6798320750E+15  0.1108144533E+00  0.1953055676E-17 -0.2841576559E+00
  0.4698893521E-01  0.1000000000E+01  0.2570463033E+00  0.1660284487E-01  0.1197484857E-17 -0.5010700270E-01  0.6798320750E+15  0.1928769359E-01  0.1183377548E-17 -0.5120506898E-01
  0.0000000000E+00  0.1000000000E+01  0.2570463033E+00 -0.1423428640E-01 -0.4206657312E-20 -0.2322763725E-02  0.6798320750E+15 -0.1420212925E-01 -0.3643133584E-20 -0.1887417256E-02
  0.4000000000E+00  0.1000000000E+01  0.3530110648E+00  0.8341025406E+00  0.5419870139E-17 -0.7336269684E+00  0.6798320750E+15  0.8546822392E+00  0.5401026532E-17 -0.7157975909E+00
  0.3530110648E+00  0.1000000000E+01  0.3530110648E+00  0.6152424362E+00  0.4772451303E-17 -0.7300097263E+00  0.6798320750E+15  0.6397359876E+00  0.4772874964E-17 -0.7146495556E+00
  0.2570463033E+00  0.1000000000E+01  0.3530110648E+00  0.3628543465E+00  0.2604452269E-17 -0.5500678040E+00  0.6798320750E+15  0.3904656849E+00  0.2464017951E-17 -0.5402455024E+00
  0.1429536967E+00  0.1000000000E+01  0.3530110648E+00  0.1127708811E+00  0.2356951434E-17 -0.4362574070E+00  0.6798320750E+15  0.1286944278E+00  0.2351841407E-17 -0.4355089049E+00
  0.4698893521E-01  0.1000000000E+01  0.3530110648E+00  0.2598865729E-01  0.7353456786E-18 -0.1157174974E+00  0.6798320750E+15  0.2724465491E-01  0.7455732243E-18 -0.1168630193E+00
  0.0000000000E+00  0.1000000000E+01  0.3530110648E+00 -0.1457864306E-01  0.5273778421E-20 -0.2679675883E-02  0.6798320750E+15 -0.1462089108E-01  0.5668994639E-20 -0.1993950098E-02
  0.4000000000E+00  0.1000000000E+01  0.4000000000E+00  0.8388049087E+00  0.7370615153E-17 -0.8944508460E+00  0.6798320750E+15  0.8609630930E+00  0.7377155251E-17 -0.8767527260E+00
  0.3530110648E+00  0.1000000000E+01  0.4000000000E+00  0.6651353140E+00  0.6365657841E-17 -0.8823529458E+00  0.6798320750E+15  0.6902493283E+00  0.6303966191E-17 -0.8628164012E+00
  0.2570463033E+00  0.1000000000E+01  0.4000000000E+00  0.3744764734E+00  0.2733959472E-17 -0.6794317133E+00  0.6798320750E+15  0.4055898488E+00  0.2833226423E-17 -0.6617950187E+00
  0.1429536967E+00  0.1000000000E+01  0.4000000000E+00  0.1264993045E+00  0.2479055921E-17 -0.5240078028E+00  0.6798320750E+15  0.1460467581E+00  0.2540249807E-17 -0.5171118709E+00
  0.4698893521E-01  0.1000000000E+01  0.4000000000E+00  0.2425363126E-01  0.7060876226E-18 -0.1486080334E+00  0.6798320750E+15  0.2577438793E-01  0.7040379027E-18 -0.1480355057E+00
  0.0000000000E+00  0.1000000000E+01  0.4000000000E+00 -0.6868106139E-02  0.8206688876E-20 -0.4016725646E-02  0.6798320750E+15 -0.6971391445E-02  0.7913430573E-20 -0.3443287302E-02
ZONE I=6, J=6, K=1, F=POINT
  0.8000000000E+00  0.1000000000E+01  0.0000000000E+00  0.1842070640E-01 -0.8694830289E-19 -0.1237517061E-01  0.6798320750E+15  0.2084009672E-01 -0.8811739620E-19 -0.1205822143E-01
  0.7530110648E+00  0.1000000000E+01  0.0000000000E+00  0.2750693958E-02  0.9002438728E-19  0.5890253585E-02  0.6798320750E+15  0.5102028765E-02  0.1456803836E-18  0.5990949258E-02
  0.6570463033E+00  0.1000000000E+01  0.0000000000E+00  0.3568560292E-03  0.3495353891E-19  0.2397486882E-03  0.6798320750E+15  0.2318608267E-02  0.5922122340E-19  0.1816180176E-03
  0.5429536967E+00  0.1000000000E+01  0.0000000000E+00  0.1886183970E-02  0.5572786292E-19  0.6914004196E-02  0.6798320750E+15  0.3487437341E-02  0.9720984158E-19  0.6821548385E-02
  0.4469889352E+00  0.1000000000E+01  0.0000000000E+00 -0.6188187913E-03  0.2530831821E-20  0.6891738884E-03  0.6798320750E+15  0.5777786938E-03  0.3875492234E-19  0.4840068398E-03
  0.4000000000E+00  0.1000000000E+01  0.0000000000E+00  0.1605311094E-01  0.3103850286E-19  0.7625075680E-02  0.6798320750E+15  0.1684815187E-01  0.3207128869E-19  0.7049500630E-02
  0.8000000000E+00  0.1000000000E+01  0.4698893521E-01  0.3679415734E+00 -0.2284506508E-16 -0.5572616326E-03  0.6798320750E+15  0.3753572447E+00 -0.2292721380E-16  0.1116433979E-01
  0.7530110648E+00  0.1000000000E+01  0.4698893521E-01  0.5569956090E+00 -0.2213644683E-16 -0.5911477322E-01  0.6798320750E+15  0.5649140646E+00 -0.2260111613E-16 -0.4693580186E-01
  0.6570463033E+00  0.1000000000E+01  0.4698893521E-01  0.3269651198E+00 -0.4122259558E-17 -0.2700160376E-01  0.6798320750E+15  0.3339229011E+00 -0.4020425930E-17 -0.1441179803E-01
  0.5429536967E+00  0.1000000000E+01  0.4698893521E-01  0.3467626735E+00  0.4582935667E-17 -0.1726851483E-01  0.6798320750E+15  0.3528613604E+00  0.4696348932E-17 -0.2566788543E-02
  0.4469889352E+00  0.1000000000E+01  0.4698893521E-01  0.2102656160E+00  0.4232185846E-17 -0.9743449961E-02  0.6798320750E+15  0.2163459171E+00  0.4182290962E-17  0.5379561565E-02
  0.4000000000E+00  0.1000000000E+01  0.4698893521E-01  0.3119052972E+00  0.3026496809E-17 -0.5419333253E-01  0.6798320750E+15  0.3168719738E+00  0.2997733583E-17 -0.4016143153E-01
  0.8000000000E+00  0.1000000000E+01  0.1429536967E+00  0.1199928213E+01 -0.5196333157E-16 -0.4021423373E+00  0.6798320750E+15  0.1205729279E+01 -0.5178324956E-16 -0.3816371052E+00
  0.7530110648E+00  0.1000000000E+01  0.1429536967E+00  0.1473772783E+01 -0.3190204708E-16 -0.2520790746E+00  0.6798320750E+15  0.1482253844E+01 -0.3209721221E-16 -0.2319837638E+00
  0.6570463033E+00  0.1000000000E+01  0.1429536967E+00  0.9979140742E+00 -0.2028424561E-17 -0.2373893075E+00  0.6798320750E+15  0.1004930874E+01 -0.2299976830E-17 -0.2192741487E+00
  0.5429536967E+00  0.1000000000E+01  0.1429536967E+00  0.8931367740E+00  0.1049312284E-16 -0.8717313552E-01  0.6798320750E+15  0.8971720879E+00  0.1061940923E-16 -0.6896567008E-01
  0.4469889352E+00  0.1000000000E+01  0.1429536967E+00  0.5620761423E+00  0.1041142481E-16 -0.1657123553E+00  0.6798320750E+15  0.5685963654E+00  0.1026964203E-16 -0.1456891449E+00
  0.4000000000E+00  0.1000000000E+01  0.1429536967E+00  0.6707611135E+00  0.1111969695E-16 -0.1395583510E+00  0.6798320750E+15  0.6798629769E+00  0.1124786656E-16 -0.1204567316E+00
  0.8000000000E+00  0.1000000000E+01  0.2570463033E+00  0.2345193910E+01 -0.1027255953E-16 -0.1018448345E+01  0.6798320750E+15  0.2354695559E+01 -0.1025879019E-16 -0.9894503087E+00
  0.7530110648E+00  0.1000000000E+01  0.2570463033E+00  0.2179288888E+01 -0.6667062174E-17 -0.7559010344E+00  0.6798320750E+15  0.2192017233E+01 -0.6354579678E-17 -0.7295378266E+00
  0.6570463033E+00  0.1000000000E+01  0.2570463033E+00  0.1648781423E+01 -0.1149096482E-17 -0.6747351262E+00  0.6798320750E+15  0.1658944415E+01 -0.1430679656E-17 -0.6522864256E+00
  0.5429536967E+00  0.1000000000E+01  0.2570463033E+00  0.1241952868E+01  0.4286069743E-17 -0.3935827825E+00  0.6798320750E+15  0.1245855085E+01  0.4344776790E-17 -0.3731231101E+00
  0.4469889352E+00  0.1000000000E+01  0.2570463033E+00  0.8567826110E+00  0.5046543948E-17 -0.4797116770E+00  0.6798320750E+15  0.8644289863E+00  0.5270071321E-17 -0.4618504889E+00
  0.4000000000E+00  0.1000000000E+01  0.2570463033E+00  0.7869802183E+00  0.4948205621E-17 -0.4232668449E+00  0.6798320750E+15  0.8014707209E+00  0.4964293105E-17 -0.4074319639E+00
  0.8000000000E+00  0.1000000000E+01  0.3530110648E+00  0.2676050126E+01  0.4506690111E-17 -0.1578662843E+01  0.6798320750E+15  0.2691396639E+01  0.4466868166E-17 -0.1544109928E+01
  0.7530110648E+00  0.1000000000E+01  0.3530110648E+00  0.2526885578E+01  0.7320719669E-17 -0.1345785382E+01  0.6798320750E+15  0.2545930086E+01  0.8390433583E-17 -0.1314567909E+01
  0.6570463033E+00  0.1000000000E+01  0.3530110648E+00  0.1926308108E+01  0.1855457167E-17 -0.1134604627E+01  0.6798320750E+15  0.1937605292E+01  0.1075737025E-17 -0.1106422078E+01
  0.5429536967E+00  0.1000000000E+01  0.3530110648E+00  0.1417872270E+01  0.8440225478E-18 -0.7876188502E+00  0.6798320750E+15  0.1424441030E+01  0.2055246098E-18 -0.7592777334E+00
  0.4469889352E+00  0.1000000000E+01  0.3530110648E+00  0.9380921000E+00  0.5070020274E-17 -0.7932144746E+00  0.6798320750E+15  0.9526986052E+00  0.4918832643E-17 -0.7716527440E+00
  0.4000000000E+00  0.1000000000E+01  0.3530110648E+00  0.8675622808E+00  0.5394752329E-17 -0.7334254812E+00  0.6798320750E+15  0.8869979317E+00  0.5378937626E-17 -0.7155750927E+00
  0.8000000000E+00  0.1000000000E+01  0.4000000000E+00  0.2813009204E+01 -0.1772300202E-17 -0.1913033101E+01  0.6798320750E+15  0.2830840331E+01 -0.1766586601E-17 -0.1883718343E+01
  0.7530110648E+00  0.1000000000E+01  0.4000000000E+00  0.2532476036E+01  0.9449618144E-18 -0.1613089379E+01  0.6798320750E+15  0.2554505335E+01  0.9804494414E-18 -0.1585249574E+01
  0.6570463033E+00  0.1000000000E+01  0.4000000000E+00  0.1970756223E+01  0.2177456054E-17 -0.1376291902E+01  0.6798320750E+15  0.1981933295E+01  0.2392554447E-17 -0.1351736282E+01
  0.5429536967E+00  0.1000000000E+01  0.4000000000E+00  0.1431030244E+01  0.8271457778E-17 -0.1027689269E+01  0.6798320750E+15  0.1438583199E+01  0.8610853908E-17 -0.1002086245E+01
  0.4469889352E+00  0.1000000000E+01  0.4000000000E+00  0.1015397421E+01  0.8014264599E-17 -0.9802192262E+00  0.6798320750E+15  0.1034278220E+01  0.8380973456E-17 -0.9594234597E+00
  0.4000000000E+00  0.1000000000E+01  0.4000000000E+00  0.8505034114E+00  0.7394020307E-17 -0.8936423319E+00  0.6798320750E+15  0.8721629389E+00  0.7397642020E-17 -0.8760137118E+00
ZONE I=6, J=6, K=1, F=POINT
  0.1200000000E+01  0.1000000000E+01  0.0000000000E+00 -0.3282687556E-01  0.5568647404E-19  0.3668048869E-01  0.6798320750E+15 -0.3033966465E-01  0.5821458445E-19  0.3642860924E-01
  0.1153011065E+01  0.1000000000E+01  0.0000000000E+00 -0.5803906953E-02 -0.2621534864E-18 -0.9653073795E-02  0.6798320750E+15 -0.3093351237E-02 -0.1373794218E-18 -0.9656577171E-02
  0.1057046303E+01  0.1000000000E+01  0.0000000000E+00  0.1830392687E-02  0.1178428974E-19  0.5966425059E-02  0.6798320750E+15  0.4699099085E-02  0.8438535429E-19  0.5958033158E-02
  0.9429536967E+00  0.1000000000E+01  0.0000000000E+00 -0.2201310115E-02  0.7533921677E-21 -0.8302965614E-02  0.6798320750E+15  0.4285476087E-03  0.2143627120E-20 -0.8323874796E-02
  0.8469889352E+00  0.1000000000E+01  0.0000000000E+00  0.3556456074E-02 -0.2145226530E-19  0.5170556124E-02  0.6798320750E+15  0.5951154835E-02 -0.2330398180E-19  0.5225001137E-02
  0.8000000000E+00  0.1000000000E+01  0.0000000000E+00 -0.2704031177E-01 -0.9673710679E-19 -0.1182170678E-01  0.6798320750E+15 -0.2472060887E-01 -0.9779173054E-19 -0.1151171903E-01
  0.1200000000E+01  0.1000000000E+01  0.4698893521E-01  0.2286226713E+01 -0.4169013910E-16 -0.2178657003E+00  0.6798320750E+15  0.2293108366E+01 -0.4197244780E-16 -0.2056355003E+00
  0.1153011065E+01  0.1000000000E+01  0.4698893521E-01  0.1588751219E+01 -0.2559495450E-16 -0.7320622618E-01  0.6798320750E+15  0.1595842098E+01 -0.2582877599E-16 -0.6156452627E-01
  0.1057046303E+01  0.1000000000E+01  0.4698893521E-01  0.1439284573E+01 -0.1173252780E-16 -0.1086575139E+00  0.6798320750E+15  0.1446968186E+01 -0.1162357756E-16 -0.9763542563E-01
  0.9429536967E+00  0.1000000000E+01  0.4698893521E-01  0.8152890380E+00 -0.1382617644E-16 -0.9571168936E-01  0.6798320750E+15  0.8228288135E+00 -0.1402184664E-16 -0.8423636168E-01
  0.8469889352E+00  0.1000000000E+01  0.4698893521E-01  0.7021261341E+00 -0.2670269108E-16 -0.8926288266E-01  0.6798320750E+15  0.7095013997E+00 -0.2703943856E-16 -0.7746932546E-01
  0.8000000000E+00  0.1000000000E+01  0.4698893521E-01  0.3071358141E+00 -0.2214710552E-16  0.1497954457E-02  0.6798320750E+15  0.3147938171E+00 -0.2223876634E-16  0.1317922052E-01
  0.1200000000E+01  0.1000000000E+01  0.1429536967E+00  0.5358762974E+01 -0.5777115629E-16 -0.6689646359E+00  0.6798320750E+15  0.5369287224E+01 -0.5791469341E-16 -0.6515583133E+00
  0.1153011065E+01  0.1000000000E+01  0.1429536967E+00  0.3889746154E+01 -0.6650870683E-16 -0.8812544480E+00  0.6798320750E+15  0.3898009823E+01 -0.6621449095E-16 -0.8634405941E+00
  0.1057046303E+01  0.1000000000E+01  0.1429536967E+00  0.3470074783E+01 -0.3654111764E-16 -0.6706837381E+00  0.6798320750E+15  0.3477128412E+01 -0.3655186256E-16 -0.6520695748E+00
  0.9429536967E+00  0.1000000000E+01  0.1429536967E+00  0.2166637270E+01 -0.3210800308E-16 -0.7775696452E+00  0.6798320750E+15  0.2173530621E+01 -0.3209279042E-16 -0.7569542868E+00
  0.8469889352E+00  0.1000000000E+01  0.1429536967E+00  0.1846798520E+01 -0.4784202692E-16 -0.4247575046E+00  0.6798320750E+15  0.1854440823E+01 -0.4811835265E-16 -0.4039070585E+00
  0.8000000000E+00  0.1000000000E+01  0.1429536967E+00  0.1115375348E+01 -0.5420519382E-16 -0.4037831113E+00  0.6798320750E+15  0.1124048491E+01 -0.5400349574E-16 -0.3832517516E+00
  0.1200000000E+01  0.1000000000E+01  0.2570463033E+00  0.5820086011E+01 -0.5740240346E-17 -0.1813862847E+01  0.6798320750E+15  0.5824795011E+01 -0.5680252073E-17 -0.1788720659E+01
  0.1153011065E+01  0.1000000000E+01  0.2570463033E+00  0.5267502452E+01 -0.3710953352E-16 -0.2072202663E+01  0.6798320750E+15  0.5274505123E+01 -0.3742204274E-16 -0.2047455950E+01
  0.1057046303E+01  0.1000000000E+01  0.2570463033E+00  0.4383871715E+01 -0.2888050109E-16 -0.1691258729E+01  0.6798320750E+15  0.4389741143E+01 -0.2888683821E-16 -0.1666187531E+01
  0.9429536967E+00  0.1000000000E+01  0.2570463033E+00  0.3347899079E+01 -0.2689312316E-16 -0.1741018683E+01  0.6798320750E+15  0.3352384821E+01 -0.2712240158E-16 -0.1713511735E+01
  0.8469889352E+00  0.1000000000E+01  0.2570463033E+00  0.2739741348E+01 -0.1215178988E-16 -0.1099254217E+01  0.6798320750E+15  0.2747995119E+01 -0.1151089789E-16 -0.1069716033E+01
  0.8000000000E+00  0.1000000000E+01  0.2570463033E+00  0.2307376439E+01 -0.1042710073E-16 -0.1021072730E+01  0.6798320750E+15  0.2317942105E+01 -0.1040351537E-16 -0.9916632817E+00
  0.1200000000E+01  0.1000000000E+01  0.3530110648E+00  0.6253636358E+01  0.3229692187E-16 -0.2982657775E+01  0.6798320750E+15  0.6259771125E+01  0.3231879347E-16 -0.2956667488E+01
  0.1153011065E+01  0.1000000000E+01  0.3530110648E+00  0.5506260613E+01  0.1387414914E-16 -0.2929181555E+01  0.6798320750E+15  0.5513913045E+01  0.1379784599E-16 -0.2903708988E+01
  0.1057046303E+01  0.1000000000E+01  0.3530110648E+00  0.4727525644E+01 -0.5604846447E-17 -0.2584827397E+01  0.6798320750E+15  0.4732728734E+01 -0.5984526402E-17 -0.2558755323E+01
  0.9429536967E+00  0.1000000000E+01  0.3530110648E+00  0.3698815438E+01 -0.1160154139E-16 -0.2392319365E+01  0.6798320750E+15  0.3699501038E+01 -0.1186686332E-16 -0.2362535268E+01
  0.8469889352E+00  0.1000000000E+01  0.3530110648E+00  0.3145541314E+01  0.9584657322E-18 -0.1775456693E+01  0.6798320750E+15  0.3152049583E+01  0.8227206775E-18 -0.1740634056E+01
  0.8000000000E+00  0.1000000000E+01  0.3530110648E+00  0.2628336737E+01  0.4555971834E-17 -0.1578961123E+01  0.6798320750E+15  0.2644827990E+01  0.4532520711E-17 -0.1544441286E+01
  0.1200000000E+01  0.1000000000E+01  0.4000000000E+00  0.6032296738E+01  0.3693299998E-16 -0.3309367259E+01  0.6798320750E+15  0.6037925426E+01  0.3693537688E-16 -0.3296214310E+01
  0.1153011065E+01  0.1000000000E+01  0.4000000000E+00  0.5644258611E+01  0.2901532435E-16 -0.3449726850E+01  0.6798320750E+15  0.5650917245E+01  0.2907830122E-16 -0.3436198193E+01
  0.1057046303E+01  0.1000000000E+01  0.4000000000E+00  0.4725266102E+01  0.4597497061E-17 -0.2990172579E+01  0.6798320750E+15  0.4729331212E+01  0.4718861389E-17 -0.2972861719E+01
  0.9429536967E+00  0.1000000000E+01  0.4000000000E+00  0.3814033560E+01 -0.1147000311E-16 -0.2773470795E+01  0.6798320750E+15  0.3811673488E+01 -0.1122543291E-16 -0.2749485099E+01
  0.8469889352E+00  0.1000000000E+01  0.4000000000E+00  0.3138213309E+01 -0.6599620400E-17 -0.2075894134E+01  0.6798320750E+15  0.3143366777E+01 -0.6627303523E-17 -0.2046712222E+01
  0.8000000000E+00  0.1000000000E+01  0.4000000000E+00  0.2807897695E+01 -0.1752246067E-17 -0.1916432921E+01  0.6798320750E+15  0.2826609007E+01 -0.1745009057E-17 -0.1886697006E+01
ZONE I=6, J=6, K=1, F=POINT
  0.1600000000E+01  0.1000000000E+01  0.0000000000E+00  0.1277575992E+00 -0.9386081656E-18 -0.7137452227E-01  0.6798320750E+15  0.1302603217E+00 -0.1050274316E-17 -0.7166959236E-01
  0.1553011065E+01  0.1000000000E+01  0.0000000000E+00  0.8051332878E-02 -0.1201426863E-17  0.4542196327E-01  0.6798320750E+15  0.1072727012E-01 -0.1355505263E-17  0.4513226069E-01
  0.1457046303E+01  0.1000000000E+01  0.0000000000E+00 -0.9007596132E-02 -0.5459252889E-19 -0.3053455437E-02  0.6798320750E+15 -0.6844585434E-02 -0.1218359899E-18 -0.3101583198E-02
  0.1342953697E+01  0.1000000000E+01  0.0000000000E+00  0.3999987089E-02  0.3304859246E-18  0.2986466387E-01  0.6798320750E+15  0.5941324748E-02  0.4390906861E-18  0.2974121504E-01
  0.1246988935E+01  0.1000000000E+01  0.0000000000E+00 -0.8373457473E-02  0.1274676476E-18 -0.8159208104E-02  0.6798320750E+15 -0.6385340088E-02  0.1370673643E-18 -0.8126860385E-02
  0.1200000000E+01  0.1000000000E+01  0.0000000000E+00  0.5716738185E-01  0.5957350731E-19  0.3666880384E-01  0.6798320750E+15  0.5943757776E-01  0.6282835651E-19  0.3643824144E-01
  0.1600000000E+01  0.1000000000E+01  0.4698893521E-01  0.2987581130E+01 -0.8721775903E-16  0.2457304115E+00  0.6798320750E+15  0.2990559843E+01 -0.8729444131E-16  0.2586466813E+00
  0.1553011065E+01  0.1000000000E+01  0.4698893521E-01  0.3508195280E+01 -0.4359351341E-16 -0.2597409664E+00  0.6798320750E+15  0.3513385760E+01 -0.4344865163E-16 -0.2488940349E+00
  0.1457046303E+01  0.1000000000E+01  0.4698893521E-01  0.2573857705E+01 -0.4114009265E-17 -0.8229093452E-01  0.6798320750E+15  0.2578757837E+01 -0.4244882833E-17 -0.7323306994E-01
  0.1342953697E+01  0.1000000000E+01  0.4698893521E-01  0.2597198788E+01  0.2849755769E-16 -0.6700598612E-01  0.6798320750E+15  0.2600907691E+01  0.2853512662E-16 -0.5727074114E-01
  0.1246988935E+01  0.1000000000E+01  0.4698893521E-01  0.2021821116E+01 -0.7271244398E-17 -0.4254528207E-01  0.6798320750E+15  0.2026716157E+01 -0.7066191713E-17 -0.3108223844E-01
  0.1200000000E+01  0.1000000000E+01  0.4698893521E-01  0.2385431916E+01 -0.4593398466E-16 -0.2235657214E+00  0.6798320750E+15  0.2390125346E+01 -0.4618580276E-16 -0.2109356380E+00
  0.1600000000E+01  0.1000000000E+01  0.1429536967E+00  0.6425530298E+01 -0.2669221537E-15 -0.1718253876E+01  0.6798320750E+15  0.6416757082E+01 -0.2664730009E-15 -0.1705039233E+01
  0.1553011065E+01  0.1000000000E+01  0.1429536967E+00  0.8166098742E+01 -0.1416231383E-15 -0.8866761753E+00  0.6798320750E+15  0.8173478976E+01 -0.1421178885E-15 -0.8740793176E+00
  0.1457046303E+01  0.1000000000E+01  0.1429536967E+00  0.6183399378E+01  0.3121450363E-16 -0.8943365383E+00  0.6798320750E+15  0.6189097670E+01  0.3139438481E-16 -0.8819109544E+00
  0.1342953697E+01  0.1000000000E+01  0.1429536967E+00  0.6183623362E+01  0.1000122052E-15 -0.2170433604E+00  0.6798320750E+15  0.6185529422E+01  0.1001087780E-15 -0.2029798640E+00
  0.1246988935E+01  0.1000000000E+01  0.1429536967E+00  0.4816831089E+01  0.2654653827E-16 -0.7927504345E+00  0.6798320750E+15  0.4820270418E+01  0.2636526106E-16 -0.7757419435E+00
  0.1200000000E+01  0.1000000000E+01  0.1429536967E+00  0.5525451079E+01 -0.6192281171E-16 -0.6634160527E+00  0.6798320750E+15  0.5524695497E+01 -0.6194395136E-16 -0.6467549997E+00
  0.1600000000E+01  0.1000000000E+01  0.2570463033E+00  0.1148908122E+02  0.1049997906E-15 -0.3463169774E+01  0.6798320750E+15  0.1150694013E+02  0.1049802784E-15 -0.3456586480E+01
  0.1553011065E+01  0.1000000000E+01  0.2570463033E+00  0.1047029195E+02  0.1272549655E-15 -0.2389194392E+01  0.6798320750E+15  0.1047961841E+02  0.1273184796E-15 -0.2377686359E+01
  0.1457046303E+01  0.1000000000E+01  0.2570463033E+00  0.9176626707E+01  0.1846118294E-15 -0.2311021223E+01  0.6798320750E+15  0.9180065412E+01  0.1847054557E-15 -0.2296873708E+01
  0.1342953697E+01  0.1000000000E+01  0.2570463033E+00  0.7572071140E+01  0.1315111372E-15 -0.1244956785E+01  0.6798320750E+15  0.7571732484E+01  0.1314730165E-15 -0.1226425968E+01
  0.1246988935E+01  0.1000000000E+01  0.2570463033E+00  0.6309759438E+01  0.4220448118E-16 -0.2032580284E+01  0.6798320750E+15  0.6309839963E+01  0.4251312550E-16 -0.2008498902E+01
  0.1200000000E+01  0.1000000000E+01  0.2570463033E+00  0.5860922155E+01 -0.6014006521E-17 -0.1804105372E+01  0.6798320750E+15  0.5865279644E+01 -0.5953800929E-17 -0.1781841136E+01
  0.1600000000E+01  0.1000000000E+01  0.3530110648E+00  0.1008639340E+02  0.2095573824E-15 -0.3888872704E+01  0.6798320750E+15  0.1009712365E+02  0.2094230292E-15 -0.3869221245E+01
  0.1553011065E+01  0.1000000000E+01  0.3530110648E+00  0.1033019873E+02  0.2116727823E-15 -0.3832677079E+01  0.6798320750E+15  0.1033782124E+02  0.2117062871E-15 -0.3814107052E+01
  0.1457046303E+01  0.1000000000E+01  0.3530110648E+00  0.9177487779E+01  0.1977271723E-15 -0.3483602572E+01  0.6798320750E+15  0.9178775278E+01  0.1974465221E-15 -0.3464784508E+01
  0.1342953697E+01  0.1000000000E+01  0.3530110648E+00  0.7904051497E+01  0.1473553843E-15 -0.2778258228E+01  0.6798320750E+15  0.7899237944E+01  0.1470299441E-15 -0.2757054806E+01
  0.1246988935E+01  0.1000000000E+01  0.3530110648E+00  0.6470538573E+01  0.6256687905E-16 -0.3020787856E+01  0.6798320750E+15  0.6466872505E+01  0.6255965270E-16 -0.2995436506E+01
  0.1200000000E+01  0.1000000000E+01  0.3530110648E+00  0.6332272988E+01  0.3241687011E-16 -0.2982977577E+01  0.6798320750E+15  0.6334130028E+01  0.3240548425E-16 -0.2956731625E+01
  0.1600000000E+01  0.1000000000E+01  0.4000000000E+00  0.1030832468E+02  0.2112704780E-15 -0.4576790108E+01  0.6798320750E+15  0.1032327799E+02  0.2111572987E-15 -0.4560872512E+01
  0.1553011065E+01  0.1000000000E+01  0.4000000000E+00  0.9698717637E+01  0.2231430360E-15 -0.3841262447E+01  0.6798320750E+15  0.9708280911E+01  0.2229182946E-15 -0.3821600919E+01
  0.1457046303E+01  0.1000000000E+01  0.4000000000E+00  0.9121702807E+01  0.1891562905E-15 -0.4016984580E+01  0.6798320750E+15  0.9122549119E+01  0.1892014674E-15 -0.3998034489E+01
  0.1342953697E+01  0.1000000000E+01  0.4000000000E+00  0.7702181219E+01  0.1536813341E-15 -0.3192492388E+01  0.6798320750E+15  0.7698410881E+01  0.1535009047E-15 -0.3178676181E+01
  0.1246988935E+01  0.1000000000E+01  0.4000000000E+00  0.6636697079E+01  0.6174179522E-16 -0.3603456877E+01  0.6798320750E+15  0.6631210590E+01  0.6185951145E-16 -0.3590061519E+01
  0.1200000000E+01  0.1000000000E+01  0.4000000000E+00  0.6006379412E+01  0.3720132600E-16 -0.3297029930E+01  0.6798320750E+15  0.6012812336E+01  0.3718315944E-16 -0.3286774929E+01
ZONE I=6, J=6, K=1, F=POINT
  0.2000000000E+01  0.1000000000E+01  0.0000000000E+00  0.2401402145E+01  0.7269082344E-19  0.2123342667E+02  0.6798320750E+15  0.2429562252E+01  0.9408450841E-19  0.2215480620E+02
  0.1953011065E+01  0.1000000000E+01  0.0000000000E+00  0.1288105807E+01 -0.3723457558E-16 -0.1383529013E+00  0.6798320750E+15  0.1295278267E+01 -0.3606272869E-16 -0.1511774059E+00
  0.1857046303E+01  0.1000000000E+01  0.0000000000E+00 -0.3110368395E+00 -0.1903988982E-16  0.1521250738E+00  0.6798320750E+15 -0.3079881173E+00 -0.1932608488E-16  0.1505100587E+00
  0.1742953697E+01  0.1000000000E+01  0.0000000000E+00  0.1306357868E+00  0.2035739151E-18 -0.3725069924E-01  0.6798320750E+15  0.1342323545E+00  0.9650322882E-19 -0.3694977324E-01
  0.1646988935E+01  0.1000000000E+01  0.0000000000E+00 -0.1304118249E+00  0.3175683849E-18  0.6052079149E-01  0.6798320750E+15 -0.1270285544E+00  0.2758716147E-18  0.5956719092E-01
  0.1600000000E+01  0.1000000000E+01  0.0000000000E+00  0.8637952130E-01 -0.1017441861E-17 -0.8341016275E-01  0.6798320750E+15  0.8829575601E-01 -0.1131258167E-17 -0.8234142420E-01
  0.2000000000E+01  0.1000000000E+01  0.4698893521E-01 -0.1352537480E-01  0.7493129944E-18  0.4847872224E+02  0.6798320750E+15 -0.5591737802E-01  0.6852495070E-18  0.4865717333E+02
  0.1953011065E+01  0.1000000000E+01  0.4698893521E-01  0.1094202696E+02  0.1353461967E-15  0.1447199300E+01  0.6798320750E+15  0.1093200346E+02  0.1341568381E-15  0.1468403548E+01
  0.1857046303E+01  0.1000000000E+01  0.4698893521E-01  0.1158881575E+02  0.2855076856E-15 -0.1911218785E+01  0.6798320750E+15  0.1159260160E+02  0.2859395479E-15 -0.1899636587E+01
  0.1742953697E+01  0.1000000000E+01  0.4698893521E-01  0.5692586289E+01 -0.4239195962E-16 -0.6486593560E+00  0.6798320750E+15  0.5698431764E+01 -0.4205280636E-16 -0.6360711639E+00
  0.1646988935E+01  0.1000000000E+01  0.4698893521E-01  0.4430327907E+01 -0.1207608811E-15 -0.6153319535E+00  0.6798320750E+15  0.4433239258E+01 -0.1211288658E-15 -0.6001899162E+00
  0.1600000000E+01  0.1000000000E+01  0.4698893521E-01  0.2823293711E+01 -0.8437193170E-16  0.2315499747E+00  0.6798320750E+15  0.2835542111E+01 -0.8426621810E-16  0.2391716403E+00
  0.2000000000E+01  0.1000000000E+01  0.1429536967E+00 -0.2817706442E+00  0.2737191000E-17  0.5049858111E+02  0.6798320750E+15 -0.2575318599E+00  0.2773955933E-17  0.5043991799E+02
  0.1953011065E+01  0.1000000000E+01  0.1429536967E+00  0.2768377223E+01 -0.5120778810E-15  0.1633467098E+02  0.6798320750E+15  0.2752774193E+01 -0.5121853765E-15  0.1637721348E+02
  0.1857046303E+01  0.1000000000E+01  0.1429536967E+00  0.1264695448E+02 -0.2618175272E-15 -0.3680299057E+01  0.6798320750E+15  0.1263743327E+02 -0.2614621280E-15 -0.3659041989E+01
  0.1742953697E+01  0.1000000000E+01  0.1429536967E+00  0.9922018936E+01 -0.3560696729E-16 -0.4047280631E+01  0.6798320750E+15  0.9924696201E+01 -0.3582348095E-16 -0.4025635548E+01
  0.1646988935E+01  0.1000000000E+01  0.1429536967E+00  0.9347797421E+01 -0.1611503372E-15 -0.1985139344E+01  0.6798320750E+15  0.9357925170E+01 -0.1609412831E-15 -0.1966337070E+01
  0.1600000000E+01  0.1000000000E+01  0.1429536967E+00  0.6052499741E+01 -0.2836090128E-15 -0.1718563845E+01  0.6798320750E+15  0.6084341837E+01 -0.2835047923E-15 -0.1709718490E+01
  0.2000000000E+01  0.1000000000E+01  0.2570463033E+00  0.1886260879E-01  0.1134724091E-17  0.4986874993E+02  0.6798320750E+15  0.1796055375E-01  0.1106108426E-17  0.4987818459E+02