TITLE = "Generated from ../MESH/Convergence_0000000000.hmesh and Convergence_0000002300.hsol"
VARIABLES = "x","y","z","veloT_x","veloT_y","veloT_z","slr_4","velo_x","velo_y","velo_z"
ZONE I=6, J=6, K=1, F=POINT
  0.4000000000E+00  0.1000000000E+01  0.0000000000E+00 -0.1127460482E-01  0.2922606691E-19  0.7267974960E-02  0.6510731220E+15 -0.1173943037E-01  0.2896260772E-19  0.7205980327E-02
  0.3530110648E+00  0.1000000000E+01  0.0000000000E+00 -0.9570903007E-03  0.7646723900E-20 -0.3599345077E-03  0.6510731220E+15 -0.1732072227E-02  0.8774015645E-20 -0.4138245567E-03
  0.2570463033E+00  0.1000000000E+01  0.0000000000E+00  0.5443380948E-03  0.9495487911E-21  0.2290936584E-02  0.6510731220E+15 -0.2222271073E-03  0.1204768205E-20  0.2311221932E-02
  0.1429536967E+00  0.1000000000E+01  0.0000000000E+00 -0.2761713141E-03  0.1809586012E-21 -0.9688420244E-03  0.6510731220E+15 -0.1085977745E-02  0.2337114488E-21 -0.1019395305E-02
  0.4698893521E-01  0.1000000000E+01  0.0000000000E+00  0.2177293693E-02 -0.1982082948E-20  0.1878281695E-02  0.6510731220E+15  0.1520519622E-02 -0.2016162216E-20  0.1934542200E-02
  0.0000000000E+00  0.1000000000E+01  0.0000000000E+00 -0.7361665832E-02  0.7894235215E-23  0.1992457463E-02  0.6510731220E+15 -0.7416918084E-02  0.9332522251E-23  0.2072055352E-02
  0.4000000000E+00  0.1000000000E+01  0.4698893521E-01  0.2648478551E+00  0.2676018678E-17 -0.3780098485E-01  0.6510731220E+15  0.2634766900E+00  0.2684290520E-17 -0.5043382871E-01
  0.3530110648E+00  0.1000000000E+01  0.4698893521E-01  0.1280307577E+00  0.2336018969E-17 -0.1277204126E-02  0.6510731220E+15  0.1249390806E+00  0.2382534583E-17 -0.1251716326E-01
  0.2570463033E+00  0.1000000000E+01  0.4698893521E-01  0.1031948648E+00  0.8014677294E-18 -0.1428972971E-01  0.6510731220E+15  0.1001800119E+00  0.7946083507E-18 -0.2169899879E-01
  0.1429536967E+00  0.1000000000E+01  0.4698893521E-01  0.1002152341E-01  0.1348363738E-18 -0.1078770353E-01  0.6510731220E+15  0.7478785188E-02  0.1267283592E-18 -0.1267531257E-01
  0.4698893521E-01  0.1000000000E+01  0.4698893521E-01  0.9362135724E-03  0.1273918946E-19 -0.1079747975E-01  0.6510731220E+15 -0.7758172309E-03  0.1102684464E-19 -0.9862367663E-02
  0.0000000000E+00  0.1000000000E+01  0.4698893521E-01 -0.1788927621E-01  0.8652498694E-21  0.1897206131E-02  0.6510731220E+15 -0.1794589238E-01  0.9413939481E-21  0.2585981609E-02
  0.4000000000E+00  0.1000000000E+01  0.1429536967E+00  0.5692944387E+00  0.8863755845E-17 -0.8940800229E-01  0.6510731220E+15  0.5634240245E+00  0.8781103683E-17 -0.1121516269E+00
  0.3530110648E+00  0.1000000000E+01  0.1429536967E+00  0.3189901164E+00  0.4938238302E-17 -0.1320111737E+00  0.6510731220E+15  0.3121861450E+00  0.5080607022E-17 -0.1524052188E+00
  0.2570463033E+00  0.1000000000E+01  0.1429536967E+00  0.2338936615E+00  0.1610296720E-17 -0.8550489743E-01  0.6510731220E+15  0.2248625833E+00  0.1598774799E-17 -0.1005671243E+00
  0.1429536967E+00  0.1000000000E+01  0.1429536967E+00  0.4393062898E-01  0.3977179231E-18 -0.1120717211E+00  0.6510731220E+15  0.3482911079E-01  0.3946997672E-18 -0.1175074836E+00
  0.4698893521E-01  0.1000000000E+01  0.1429536967E+00 -0.2705821464E-02  0.5929266790E-19 -0.1416517209E-01  0.6510731220E+15 -0.6993120381E-02  0.5677134876E-19 -0.1346743319E-01
  0.0000000000E+00  0.1000000000E+01  0.1429536967E+00 -0.2127092763E-01 -0.3592224523E-21 -0.1703588760E-02  0.6510731220E+15 -0.2127775003E-01 -0.3143720602E-22 -0.9046058474E-03
  0.4000000000E+00  0.1000000000E+01  0.2570463033E+00  0.6178027012E+00  0.1725813644E-17 -0.2939996575E+00  0.6510731220E+15  0.6039061406E+00  0.1719631251E-17 -0.3235805455E+00
  0.3530110648E+00  0.1000000000E+01  0.2570463033E+00  0.4623720947E+00  0.1236270157E-17 -0.3493481015E+00  0.6510731220E+15  0.4480820394E+00  0.8714539242E-18 -0.3747487794E+00
  0.2570463033E+00  0.1000000000E+01  0.2570463033E+00  0.3030179070E+00  0.5467457645E-18 -0.2516801034E+00  0.6510731220E+15  0.2838259076E+00  0.5509534084E-18 -0.2667515904E+00
  0.1429536967E+00  0.1000000000E+01  0.2570463033E+00  0.9828447707E-01  0.6216711447E-18 -0.2691598041E+00  0.6510731220E+15  0.7952987372E-01  0.6241898797E-18 -0.2727431162E+00
  0.4698893521E-01  0.1000000000E+01  0.2570463033E+00  0.1343632399E-01  0.6650140255E-18 -0.5376841930E-01  0.6510731220E+15  0.5744250457E-02  0.6787791628E-18 -0.5274591931E-01
  0.0000000000E+00  0.1000000000E+01  0.2570463033E+00 -0.1410609857E-01 -0.2701114334E-20 -0.1513305622E-02  0.6510731220E+15 -0.1407211273E-01 -0.3228276948E-20 -0.8181943506E-03
  0.4000000000E+00  0.1000000000E+01  0.3530110648E+00  0.6254048917E+00  0.1396798908E-17 -0.5039574496E+00  0.6510731220E+15  0.6025153435E+00  0.1414428213E-17 -0.5369292685E+00
  0.3530110648E+00  0.1000000000E+01  0.3530110648E+00  0.4720958416E+00  0.1130098738E-17 -0.5310014827E+00  0.6510731220E+15  0.4459579740E+00  0.1126724205E-17 -0.5580618259E+00
  0.2570463033E+00  0.1000000000E+01  0.3530110648E+00  0.3164116207E+00 -0.1435450589E-18 -0.4234761110E+00  0.6510731220E+15  0.2846082805E+00  0.4790999457E-19 -0.4366296739E+00
  0.1429536967E+00  0.1000000000E+01  0.3530110648E+00  0.1066933351E+00  0.8586715179E-18 -0.3922463265E+00  0.6510731220E+15  0.8141500685E-01  0.8695985501E-18 -0.3936703522E+00
  0.4698893521E-01  0.1000000000E+01  0.3530110648E+00  0.1706515583E-01  0.2502308140E-18 -0.1125271269E+00  0.6510731220E+15  0.8570839912E-02  0.2381176346E-18 -0.1111702310E+00
  0.0000000000E+00  0.1000000000E+01  0.3530110648E+00 -0.1440379955E-01  0.5488147933E-20 -0.1430763908E-02  0.6510731220E+15 -0.1433148799E-01  0.5130305090E-20 -0.8221797455E-03
  0.4000000000E+00  0.1000000000E+01  0.4000000000E+00  0.5946592921E+00  0.3295010251E-17 -0.6109887743E+00  0.6510731220E+15  0.5659130438E+00  0.3300257043E-17 -0.6405440665E+00
  0.3530110648E+00  0.1000000000E+01  0.4000000000E+00  0.4959988191E+00  0.2582861249E-17 -0.6303253874E+00  0.6510731220E+15  0.4637537173E+00  0.2641626702E-17 -0.6543403137E+00
  0.2570463033E+00  0.1000000000E+01  0.4000000000E+00  0.3190927161E+00  0.1611806881E-18 -0.5085146539E+00  0.6510731220E+15  0.2815954687E+00  0.1044691506E-18 -0.5220495293E+00
  0.1429536967E+00  0.1000000000E+01  0.4000000000E+00  0.1188628496E+00  0.9793569982E-18 -0.4548460861E+00  0.6510731220E+15  0.9070520621E-01  0.9395066518E-18 -0.4592472848E+00
  0.4698893521E-01  0.1000000000E+01  0.4000000000E+00  0.1440028000E-01  0.1837029294E-18 -0.1385228774E+00  0.6510731220E+15  0.5206080236E-02  0.1827686990E-18 -0.1379738729E+00
  0.0000000000E+00  0.1000000000E+01  0.4000000000E+00 -0.7650553001E-02  0.7679388641E-20 -0.2406821598E-02  0.6510731220E+15 -0.7473165367E-02  0.7740886132E-20 -0.2139607080E-02
ZONE I=6, J=6, K=1, F=POINT
  0.8000000000E+00  0.1000000000E+01  0.0000000000E+00  0.1867092134E-01 -0.8007594773E-19 -0.1224085114E-01  0.6510731220E+15  0.1826835649E-01 -0.8185166792E-19 -0.1214855215E-01
  0.7530110648E+00  0.1000000000E+01  0.0000000000E+00  0.2442362707E-02  0.9129316286E-19  0.5852588390E-02  0.6510731220E+15  0.2168261426E-02  0.8840965086E-19  0.5851659794E-02
  0.6570463033E+00  0.1000000000E+01  0.0000000000E+00 -0.2457366408E-03  0.2388729088E-19  0.2298166024E-03  0.6510731220E+15 -0.5670899277E-03  0.2151888431E-19  0.2566661900E-03
  0.5429536967E+00  0.1000000000E+01  0.0000000000E+00  0.1475314200E-02  0.4252142959E-19  0.6867399398E-02  0.6510731220E+15  0.1117256318E-02  0.3611795895E-19  0.6964637504E-02
  0.4469889352E+00  0.1000000000E+01  0.0000000000E+00 -0.1051142929E-02 -0.1316402741E-19  0.5928412330E-03  0.6510731220E+15 -0.1408288089E-02 -0.2196585695E-19  0.5849019122E-03
  0.4000000000E+00  0.1000000000E+01  0.0000000000E+00  0.1555480930E-01  0.3285855835E-19  0.6949045440E-02  0.6510731220E+15  0.1494446289E-01  0.3263561791E-19  0.6895153280E-02
  0.8000000000E+00  0.1000000000E+01  0.4698893521E-01  0.3112108837E+00 -0.2548198908E-16  0.1622220939E-01  0.6510731220E+15  0.3122169579E+00 -0.2548980975E-16 -0.1669241631E-02
  0.7530110648E+00  0.1000000000E+01  0.4698893521E-01  0.5078741543E+00 -0.2494488183E-16 -0.4206217689E-01  0.6510731220E+15  0.5081247452E+00 -0.2493651135E-16 -0.6065738929E-01
  0.6570463033E+00  0.1000000000E+01  0.4698893521E-01  0.2950623792E+00 -0.5375145638E-17 -0.9199203917E-02  0.6510731220E+15  0.2944264858E+00 -0.5410330664E-17 -0.2783492181E-01
  0.5429536967E+00  0.1000000000E+01  0.4698893521E-01  0.3283056986E+00  0.4193241473E-17  0.1001655292E-02  0.6510731220E+15  0.3278123028E+00  0.4174857374E-17 -0.1539703987E-01
  0.4469889352E+00  0.1000000000E+01  0.4698893521E-01  0.2013647488E+00  0.3660466066E-17  0.7416430552E-02  0.6510731220E+15  0.2010899535E+00  0.3673902748E-17 -0.6476670243E-02
  0.4000000000E+00  0.1000000000E+01  0.4698893521E-01  0.3071087814E+00  0.2433763700E-17 -0.3854434650E-01  0.6510731220E+15  0.3056156540E+00  0.2442776245E-17 -0.5118068805E-01
  0.8000000000E+00  0.1000000000E+01  0.1429536967E+00  0.8964523268E+00 -0.5665569771E-16 -0.3111698395E+00  0.6510731220E+15  0.8999809912E+00 -0.5653895032E-16 -0.3480762312E+00
  0.7530110648E+00  0.1000000000E+01  0.1429536967E+00  0.1209283350E+01 -0.3680799063E-16 -0.1683726151E+00  0.6510731220E+15  0.1210090912E+01 -0.3656497280E-16 -0.2061410542E+00
  0.6570463033E+00  0.1000000000E+01  0.1429536967E+00  0.8059371895E+00 -0.6117095234E-17 -0.1637554255E+00  0.6510731220E+15  0.8030638824E+00 -0.6021746721E-17 -0.1996238437E+00
  0.5429536967E+00  0.1000000000E+01  0.1429536967E+00  0.7706247467E+00  0.8723818122E-17 -0.2315925390E-01  0.6510731220E+15  0.7663198630E+00  0.8580957828E-17 -0.5436632849E-01
  0.4469889352E+00  0.1000000000E+01  0.1429536967E+00  0.4918789039E+00  0.8502205881E-17 -0.1083318279E+00  0.6510731220E+15  0.4871015971E+00  0.8661565214E-17 -0.1339955218E+00
  0.4000000000E+00  0.1000000000E+01  0.1429536967E+00  0.6205689998E+00  0.9575539998E-17 -0.8886338878E-01  0.6510731220E+15  0.6147170866E+00  0.9494248594E-17 -0.1116185194E+00
  0.8000000000E+00  0.1000000000E+01  0.2570463033E+00  0.1627867735E+01 -0.1696510789E-16 -0.7589586645E+00  0.6510731220E+15  0.1637740085E+01 -0.1694951775E-16 -0.7940777738E+00
  0.7530110648E+00  0.1000000000E+01  0.2570463033E+00  0.1547138202E+01 -0.1246761126E-16 -0.5155572804E+00  0.6510731220E+15  0.1550823006E+01 -0.1303089472E-16 -0.5536810733E+00
  0.6570463033E+00  0.1000000000E+01  0.2570463033E+00  0.1172477401E+01 -0.6636790046E-17 -0.4656548938E+00  0.6510731220E+15  0.1167952960E+01 -0.6495411398E-17 -0.5079094932E+00
  0.5429536967E+00  0.1000000000E+01  0.2570463033E+00  0.9302077997E+00  0.4549955246E-18 -0.2188701500E+00  0.6510731220E+15  0.9199833817E+00  0.2952724286E-18 -0.2587005367E+00
  0.4469889352E+00  0.1000000000E+01  0.2570463033E+00  0.6680544242E+00  0.2107689084E-17 -0.3323794062E+00  0.6510731220E+15  0.6551660831E+00  0.1687200025E-17 -0.3656603192E+00
  0.4000000000E+00  0.1000000000E+01  0.2570463033E+00  0.6488467777E+00  0.1753489505E-17 -0.2933653917E+00  0.6510731220E+15  0.6351079167E+00  0.1744840885E-17 -0.3229857879E+00
  0.8000000000E+00  0.1000000000E+01  0.3530110648E+00  0.1619842153E+01 -0.3953755396E-17 -0.1113835235E+01  0.6510731220E+15  0.1637358390E+01 -0.3985338780E-17 -0.1143045059E+01
  0.7530110648E+00  0.1000000000E+01  0.3530110648E+00  0.1582219234E+01 -0.1819083094E-18 -0.9120112972E+00  0.6510731220E+15  0.1595956027E+01  0.5603261785E-18 -0.9464755340E+00
  0.6570463033E+00  0.1000000000E+01  0.3530110648E+00  0.1204912951E+01 -0.4307347102E-17 -0.7602813941E+00  0.6510731220E+15  0.1204988213E+01 -0.3664829362E-17 -0.8048055109E+00
  0.5429536967E+00  0.1000000000E+01  0.3530110648E+00  0.9462824883E+00 -0.5154086537E-17 -0.4786488496E+00  0.6510731220E+15  0.9313078918E+00 -0.3832178325E-17 -0.5241776036E+00
  0.4469889352E+00  0.1000000000E+01  0.3530110648E+00  0.6517476151E+00  0.6016337824E-18 -0.5345485111E+00  0.6510731220E+15  0.6306093192E+00  0.8880761447E-18 -0.5725202394E+00
  0.4000000000E+00  0.1000000000E+01  0.3530110648E+00  0.6582548092E+00  0.1367035983E-17 -0.5037513104E+00  0.6510731220E+15  0.6355234626E+00  0.1387038104E-17 -0.5367207532E+00
  0.8000000000E+00  0.1000000000E+01  0.4000000000E+00  0.1622824239E+01 -0.1145140456E-16 -0.1328838264E+01  0.6510731220E+15  0.1644432542E+01 -0.1144872505E-16 -0.1361505530E+01
  0.7530110648E+00  0.1000000000E+01  0.4000000000E+00  0.1467950157E+01 -0.7357050940E-17 -0.1070881673E+01  0.6510731220E+15  0.1486736433E+01 -0.7204249256E-17 -0.1107341299E+01
  0.6570463033E+00  0.1000000000E+01  0.4000000000E+00  0.1155297062E+01 -0.4005151074E-17 -0.9188372359E+00  0.6510731220E+15  0.1158388426E+01 -0.4242073896E-17 -0.9622662032E+00
  0.5429536967E+00  0.1000000000E+01  0.4000000000E+00  0.8930625894E+00  0.3046817428E-17 -0.6553097380E+00  0.6510731220E+15  0.8759976600E+00  0.2199441762E-17 -0.7007864666E+00
  0.4469889352E+00  0.1000000000E+01  0.4000000000E+00  0.6844870466E+00  0.4318279473E-17 -0.6651184902E+00  0.6510731220E+15  0.6579077236E+00  0.3894791879E-17 -0.7008326527E+00
  0.4000000000E+00  0.1000000000E+01  0.4000000000E+00  0.6058970462E+00  0.3310263084E-17 -0.6102955750E+00  0.6510731220E+15  0.5777653540E+00  0.3314952683E-17 -0.6398418844E+00
ZONE I=6, J=6, K=1, F=POINT
  0.1200000000E+01  0.1000000000E+01  0.0000000000E+00 -0.3055195151E-01  0.6052168313E-19  0.3663121909E-01  0.6510731220E+15 -0.3133196825E-01  0.6218442165E-19  0.3661949358E-01
  0.1153011065E+01  0.1000000000E+01  0.0000000000E+00 -0.3472370654E-02 -0.1392271635E-18 -0.9588828254E-02  0.6510731220E+15 -0.4214031088E-02 -0.1667501076E-18 -0.9509366810E-02
  0.1057046303E+01  0.1000000000E+01  0.0000000000E+00  0.3851920496E-02  0.6771063052E-19  0.5988751483E-02  0.6510731220E+15  0.3320552451E-02  0.5319188965E-19  0.6000700294E-02
  0.9429536967E+00  0.1000000000E+01  0.0000000000E+00 -0.4183540245E-03  0.9090744066E-20 -0.8198629104E-02  0.6510731220E+15 -0.9716819514E-03  0.1241887094E-19 -0.8188633248E-02
  0.8469889352E+00  0.1000000000E+01  0.0000000000E+00  0.4835644690E-02 -0.1673473141E-19  0.5163283157E-02  0.6510731220E+15  0.4398691293E-02 -0.1576341158E-19  0.5167825556E-02
  0.8000000000E+00  0.1000000000E+01  0.0000000000E+00 -0.2662965540E-01 -0.8962724511E-19 -0.1170793992E-01  0.6510731220E+15 -0.2681814383E-01 -0.9153983393E-19 -0.1159848561E-01
  0.1200000000E+01  0.1000000000E+01  0.4698893521E-01  0.2035113544E+01 -0.4166249271E-16 -0.2119021534E+00  0.6510731220E+15  0.2037226658E+01 -0.4172938405E-16 -0.2094164326E+00
  0.1153011065E+01  0.1000000000E+01  0.4698893521E-01  0.1371710595E+01 -0.2648718651E-16 -0.6316465873E-01  0.6510731220E+15  0.1374396005E+01 -0.2656784992E-16 -0.6297242278E-01
  0.1057046303E+01  0.1000000000E+01  0.4698893521E-01  0.1273040127E+01 -0.1286338747E-16 -0.9259489325E-01  0.6510731220E+15  0.1276160920E+01 -0.1283537656E-16 -0.9808819316E-01
  0.9429536967E+00  0.1000000000E+01  0.4698893521E-01  0.7100578193E+00 -0.1636898455E-16 -0.7614544557E-01  0.6510731220E+15  0.7132450579E+00 -0.1645994165E-16 -0.8808492422E-01
  0.8469889352E+00  0.1000000000E+01  0.4698893521E-01  0.6309807946E+00 -0.2976244570E-16 -0.7146748284E-01  0.6510731220E+15  0.6337487440E+00 -0.2987065900E-16 -0.8804469074E-01
  0.8000000000E+00  0.1000000000E+01  0.4698893521E-01  0.2509752166E+00 -0.2479368267E-16  0.1826029285E-01  0.6510731220E+15  0.2523204026E+00 -0.2481073180E-16  0.3216260656E-03
  0.1200000000E+01  0.1000000000E+01  0.1429536967E+00  0.4522223631E+01 -0.5846729999E-16 -0.5523025609E+00  0.6510731220E+15  0.4532784432E+01 -0.5863569349E-16 -0.5521406580E+00
  0.1153011065E+01  0.1000000000E+01  0.1429536967E+00  0.3122277325E+01 -0.6915840023E-16 -0.7551273687E+00  0.6510731220E+15  0.3132521576E+01 -0.6862200206E-16 -0.7579511340E+00
  0.1057046303E+01  0.1000000000E+01  0.1429536967E+00  0.2840836012E+01 -0.4189349984E-16 -0.5423936132E+00  0.6510731220E+15  0.2852988172E+01 -0.4193432622E-16 -0.5541634606E+00
  0.9429536967E+00  0.1000000000E+01  0.1429536967E+00  0.1704233020E+01 -0.3761388468E-16 -0.6541624379E+00  0.6510731220E+15  0.1716520600E+01 -0.3763246356E-16 -0.6795701602E+00
  0.8469889352E+00  0.1000000000E+01  0.1429536967E+00  0.1497459431E+01 -0.5332235463E-16 -0.3269092130E+00  0.6510731220E+15  0.1505651380E+01 -0.5334371443E-16 -0.3614937694E+00
  0.8000000000E+00  0.1000000000E+01  0.1429536967E+00  0.8136502892E+00 -0.5884884995E-16 -0.3127405243E+00  0.6510731220E+15  0.8183698961E+00 -0.5875408997E-16 -0.3496240462E+00
  0.1200000000E+01  0.1000000000E+01  0.2570463033E+00  0.4241325412E+01 -0.1338262312E-16 -0.1489001337E+01  0.6510731220E+15  0.4254533386E+01 -0.1333793376E-16 -0.1493176746E+01
  0.1153011065E+01  0.1000000000E+01  0.2570463033E+00  0.3785040543E+01 -0.4899495870E-16 -0.1729292324E+01  0.6510731220E+15  0.3802383540E+01 -0.5082032822E-16 -0.1736251524E+01
  0.1057046303E+01  0.1000000000E+01  0.2570463033E+00  0.3111173398E+01 -0.4131482151E-16 -0.1335454347E+01  0.6510731220E+15  0.3136369136E+01 -0.4127518960E-16 -0.1349727791E+01
  0.9429536967E+00  0.1000000000E+01  0.2570463033E+00  0.2335432958E+01 -0.3759686893E-16 -0.1408833961E+01  0.6510731220E+15  0.2360419741E+01 -0.3889937371E-16 -0.1434246354E+01
  0.8469889352E+00  0.1000000000E+01  0.2570463033E+00  0.1934815424E+01 -0.1934287591E-16 -0.8221376589E+00  0.6510731220E+15  0.1950760497E+01 -0.1925683598E-16 -0.8544012580E+00
  0.8000000000E+00  0.1000000000E+01  0.2570463033E+00  0.1590525708E+01 -0.1711590105E-16 -0.7613083059E+00  0.6510731220E+15  0.1600796404E+01 -0.1710746624E-16 -0.7961417699E+00
  0.1200000000E+01  0.1000000000E+01  0.3530110648E+00  0.4127719637E+01  0.1751199370E-16 -0.2458262870E+01  0.6510731220E+15  0.4144976964E+01  0.1753934743E-16 -0.2472065321E+01
  0.1153011065E+01  0.1000000000E+01  0.3530110648E+00  0.3491096230E+01 -0.2882829518E-17 -0.2366879968E+01  0.6510731220E+15  0.3513534445E+01 -0.3156034512E-17 -0.2382037420E+01
  0.1057046303E+01  0.1000000000E+01  0.3530110648E+00  0.2957427488E+01 -0.2157510859E-16 -0.1988018812E+01  0.6510731220E+15  0.2989454361E+01 -0.2133954459E-16 -0.2007216145E+01
  0.9429536967E+00  0.1000000000E+01  0.3530110648E+00  0.2246499630E+01 -0.2480362348E-16 -0.1827316726E+01  0.6510731220E+15  0.2277142147E+01 -0.2560650821E-16 -0.1849851453E+01
  0.8469889352E+00  0.1000000000E+01  0.3530110648E+00  0.1965201578E+01 -0.9067819730E-17 -0.1281048235E+01  0.6510731220E+15  0.1986384667E+01 -0.8253990643E-17 -0.1307278686E+01
  0.8000000000E+00  0.1000000000E+01  0.3530110648E+00  0.1573694430E+01 -0.3898162712E-17 -0.1114047415E+01  0.6510731220E+15  0.1591794625E+01 -0.3934478994E-17 -0.1143307015E+01
  0.1200000000E+01  0.1000000000E+01  0.4000000000E+00  0.3692630687E+01  0.1919422026E-16 -0.2671622993E+01  0.6510731220E+15  0.3708908011E+01  0.1921084587E-16 -0.2695203304E+01
  0.1153011065E+01  0.1000000000E+01  0.4000000000E+00  0.3419102952E+01  0.1035219139E-16 -0.2764319830E+01  0.6510731220E+15  0.3442636188E+01  0.1079940493E-16 -0.2788980956E+01
  0.1057046303E+01  0.1000000000E+01  0.4000000000E+00  0.2759859500E+01 -0.1210300609E-16 -0.2261462471E+01  0.6510731220E+15  0.2792871961E+01 -0.1194018259E-16 -0.2286810568E+01
  0.9429536967E+00  0.1000000000E+01  0.4000000000E+00  0.2186887790E+01 -0.2521866275E-16 -0.2077899562E+01  0.6510731220E+15  0.2218381358E+01 -0.2601035712E-16 -0.2103201521E+01
  0.8469889352E+00  0.1000000000E+01  0.4000000000E+00  0.1808788649E+01 -0.1769653340E-16 -0.1457978022E+01  0.6510731220E+15  0.1833123672E+01 -0.1739252496E-16 -0.1487513703E+01
  0.8000000000E+00  0.1000000000E+01  0.4000000000E+00  0.1618767881E+01 -0.1143102678E-16 -0.1331866587E+01  0.6510731220E+15  0.1640036155E+01 -0.1143264382E-16 -0.1364335926E+01
ZONE I=6, J=6, K=1, F=POINT
  0.1600000000E+01  0.1000000000E+01  0.0000000000E+00  0.1310073122E+00 -0.8754724574E-18 -0.7268168629E-01  0.6510731220E+15  0.1300118103E+00 -0.9991562931E-18 -0.7247506226E-01
  0.1553011065E+01  0.1000000000E+01  0.0000000000E+00  0.1108208721E-01 -0.1349112882E-17  0.4521895222E-01  0.6510731220E+15  0.9959429694E-02 -0.1328533460E-17  0.4510114959E-01
  0.1457046303E+01  0.1000000000E+01  0.0000000000E+00 -0.6547468684E-02 -0.9683554880E-19 -0.3324081861E-02  0.6510731220E+15 -0.7864307469E-02 -0.8513943401E-19 -0.3323848455E-02
  0.1342953697E+01  0.1000000000E+01  0.0000000000E+00  0.6077342128E-02  0.4474521637E-18  0.2992069079E-01  0.6510731220E+15  0.5004274227E-02  0.3897219594E-18  0.2983064599E-01
  0.1246988935E+01  0.1000000000E+01  0.0000000000E+00 -0.6737198529E-02  0.1271256669E-18 -0.8177004570E-02  0.6510731220E+15 -0.7701281340E-02  0.1209072190E-18 -0.8061121386E-02
  0.1200000000E+01  0.1000000000E+01  0.0000000000E+00  0.5881584628E-01  0.6485542330E-19  0.3672281849E-01  0.6510731220E+15  0.5815134541E-01  0.6670726972E-19  0.3670051134E-01
  0.1600000000E+01  0.1000000000E+01  0.4698893521E-01  0.2922205034E+01 -0.8973077960E-16  0.1851454528E+00  0.6510731220E+15  0.2921369521E+01 -0.8970243614E-16  0.1863817991E+00
  0.1553011065E+01  0.1000000000E+01  0.4698893521E-01  0.3345823444E+01 -0.4547750864E-16 -0.3147016545E+00  0.6510731220E+15  0.3344814644E+01 -0.4550892935E-16 -0.3133841789E+00
  0.1457046303E+01  0.1000000000E+01  0.4698893521E-01  0.2318989612E+01 -0.5772334497E-17 -0.1110627946E+00  0.6510731220E+15  0.2318527377E+01 -0.5743678824E-17 -0.1089238657E+00
  0.1342953697E+01  0.1000000000E+01  0.4698893521E-01  0.2294568401E+01  0.2983972021E-16 -0.7584336112E-01  0.6510731220E+15  0.2293837380E+01  0.2983209657E-16 -0.7346921870E-01
  0.1246988935E+01  0.1000000000E+01  0.4698893521E-01  0.1751797962E+01 -0.5454756325E-17 -0.3639638455E-01  0.6510731220E+15  0.1751632653E+01 -0.5464743799E-17 -0.3339412892E-01
  0.1200000000E+01  0.1000000000E+01  0.4698893521E-01  0.2132977767E+01 -0.4587131721E-16 -0.2175617802E+00  0.6510731220E+15  0.2133443794E+01 -0.4592074482E-16 -0.2147236672E+00
  0.1600000000E+01  0.1000000000E+01  0.1429536967E+00  0.5832357705E+01 -0.2679008684E-15 -0.2035998524E+01  0.6510731220E+15  0.5818638031E+01 -0.2678296609E-15 -0.2033500201E+01
  0.1553011065E+01  0.1000000000E+01  0.1429536967E+00  0.7424518806E+01 -0.1506309918E-15 -0.1151594245E+01  0.6510731220E+15  0.7422680326E+01 -0.1507105340E-15 -0.1149786968E+01
  0.1457046303E+01  0.1000000000E+01  0.1429536967E+00  0.5251033337E+01  0.3140078893E-16 -0.1027944999E+01  0.6510731220E+15  0.5250293209E+01  0.3114636703E-16 -0.1025049284E+01
  0.1342953697E+01  0.1000000000E+01  0.1429536967E+00  0.5200711675E+01  0.1039252245E-15 -0.2101326096E+00  0.6510731220E+15  0.5200079728E+01  0.1039084941E-15 -0.2055888002E+00
  0.1246988935E+01  0.1000000000E+01  0.1429536967E+00  0.3920313786E+01  0.2751028979E-16 -0.6830187532E+00  0.6510731220E+15  0.3923008734E+01  0.2745104458E-16 -0.6802306941E+00
  0.1200000000E+01  0.1000000000E+01  0.1429536967E+00  0.4686203892E+01 -0.6261678230E-16 -0.5472592866E+00  0.6510731220E+15  0.4687436496E+01 -0.6267131882E-16 -0.5476354908E+00
  0.1600000000E+01  0.1000000000E+01  0.2570463033E+00  0.1007192021E+02  0.7543989574E-16 -0.4181718279E+01  0.6510731220E+15  0.1008061331E+02  0.7539886662E-16 -0.4186984279E+01
  0.1553011065E+01  0.1000000000E+01  0.2570463033E+00  0.8883757483E+01  0.1001972708E-15 -0.2955994815E+01  0.6510731220E+15  0.8886817708E+01  0.1000713660E-15 -0.2958212702E+01
  0.1457046303E+01  0.1000000000E+01  0.2570463033E+00  0.7393086926E+01  0.1765421510E-15 -0.2562340758E+01  0.6510731220E+15  0.7391070693E+01  0.1762854450E-15 -0.2566329623E+01
  0.1342953697E+01  0.1000000000E+01  0.2570463033E+00  0.5779850674E+01  0.1322564080E-15 -0.1150512510E+01  0.6510731220E+15  0.5780232675E+01  0.1322317766E-15 -0.1153170668E+01
  0.1246988935E+01  0.1000000000E+01  0.2570463033E+00  0.4639494452E+01  0.3907860519E-16 -0.1734349281E+01  0.6510731220E+15  0.4647430429E+01  0.3942045354E-16 -0.1736616625E+01
  0.1200000000E+01  0.1000000000E+01  0.2570463033E+00  0.4281588254E+01 -0.1368769471E-16 -0.1480524728E+01  0.6510731220E+15  0.4294313278E+01 -0.1365165270E-16 -0.1486847195E+01
  0.1600000000E+01  0.1000000000E+01  0.3530110648E+00  0.8068793898E+01  0.1472864760E-15 -0.4976091881E+01  0.6510731220E+15  0.8072993736E+01  0.1472513672E-15 -0.4979034882E+01
  0.1553011065E+01  0.1000000000E+01  0.3530110648E+00  0.8130623542E+01  0.1612686399E-15 -0.4674971957E+01  0.6510731220E+15  0.8136823999E+01  0.1613001025E-15 -0.4680947157E+01
  0.1457046303E+01  0.1000000000E+01  0.3530110648E+00  0.6791815810E+01  0.1727703134E-15 -0.3809390350E+01  0.6510731220E+15  0.6792405889E+01  0.1728279516E-15 -0.3820049370E+01
  0.1342953697E+01  0.1000000000E+01  0.3530110648E+00  0.5536588238E+01  0.1370572725E-15 -0.2588768044E+01  0.6510731220E+15  0.5536102290E+01  0.1371416978E-15 -0.2602006050E+01
  0.1246988935E+01  0.1000000000E+01  0.3530110648E+00  0.4240672597E+01  0.5123018907E-16 -0.2548678338E+01  0.6510731220E+15  0.4249871577E+01  0.5117041733E-16 -0.2561838949E+01
  0.1200000000E+01  0.1000000000E+01  0.3530110648E+00  0.4204046925E+01  0.1760099009E-16 -0.2458994540E+01  0.6510731220E+15  0.4218497906E+01  0.1760075100E-16 -0.2472374303E+01
  0.1600000000E+01  0.1000000000E+01  0.4000000000E+00  0.8072710061E+01  0.1383803343E-15 -0.5867295026E+01  0.6510731220E+15  0.8080727389E+01  0.1383305922E-15 -0.5874692693E+01
  0.1553011065E+01  0.1000000000E+01  0.4000000000E+00  0.7276872613E+01  0.1644871123E-15 -0.4822910113E+01  0.6510731220E+15  0.7286710411E+01  0.1644390365E-15 -0.4830555597E+01
  0.1457046303E+01  0.1000000000E+01  0.4000000000E+00  0.6505448102E+01  0.1554756766E-15 -0.4390413053E+01  0.6510731220E+15  0.6507007905E+01  0.1554694605E-15 -0.4399890806E+01
  0.1342953697E+01  0.1000000000E+01  0.4000000000E+00  0.5109956973E+01  0.1387231007E-15 -0.2957842902E+01  0.6510731220E+15  0.5112216663E+01  0.1385860969E-15 -0.2975072714E+01
  0.1246988935E+01  0.1000000000E+01  0.4000000000E+00  0.4187694917E+01  0.4696276859E-16 -0.3039846289E+01  0.6510731220E+15  0.4197151281E+01  0.4703780597E-16 -0.3061920346E+01
  0.1200000000E+01  0.1000000000E+01  0.4000000000E+00  0.3667001936E+01  0.1945455450E-16 -0.2660806294E+01  0.6510731220E+15  0.3684372853E+01  0.1945496845E-16 -0.2686324505E+01
ZONE I=6, J=6, K=1, F=POINT
  0.2000000000E+01  0.1000000000E+01  0.0000000000E+00  0.2402684168E+01  0.7372125472E-19  0.2123417165E+02  0.6510731220E+15  0.2430615715E+01  0.9456233953E-19  0.2215539777E+02
  0.1953011065E+01  0.1000000000E+01  0.0000000000E+00  0.1292034292E+01 -0.3738775892E-16 -0.1369084216E+00  0.6510731220E+15  0.1296300512E+01 -0.3612547872E-16 -0.1500641474E+00
  0.1857046303E+01  0.1000000000E+01  0.0000000000E+00 -0.3059348481E+00 -0.1878310347E-16  0.1519161845E+00  0.6510731220E+15 -0.3065707718E+00 -0.1926874827E-16  0.1504428091E+00
  0.1742953697E+01  0.1000000000E+01  0.0000000000E+00  0.1350993619E+00  0.2489946025E-18 -0.3789001419E-01  0.6510731220E+15  0.1357414487E+00  0.1516912040E-18 -0.3740839870E-01
  0.1646988935E+01  0.1000000000E+01  0.0000000000E+00 -0.1265074054E+00  0.3584087719E-18  0.6072135581E-01  0.6510731220E+15 -0.1264128533E+00  0.3226669094E-18  0.5978090060E-01
  0.1600000000E+01  0.1000000000E+01  0.0000000000E+00  0.8965929624E-01 -0.9534037360E-18 -0.8492546177E-01  0.6510731220E+15  0.8834576164E-01 -0.1079536160E-17 -0.8333607545E-01
  0.2000000000E+01  0.1000000000E+01  0.4698893521E-01 -0.1119966970E-01  0.7417847712E-18  0.4848352013E+02  0.6510731220E+15 -0.5367693231E-01  0.6869886790E-18  0.4865852467E+02
  0.1953011065E+01  0.1000000000E+01  0.4698893521E-01  0.1098127170E+02  0.1412729368E-15  0.1484724038E+01  0.6510731220E+15  0.1097182390E+02  0.1400643198E-15  0.1504198625E+01
  0.1857046303E+01  0.1000000000E+01  0.4698893521E-01  0.1176041851E+02  0.3042359694E-15 -0.1872126895E+01  0.6510731220E+15  0.1176488515E+02  0.3046723938E-15 -0.1867802594E+01
  0.1742953697E+01  0.1000000000E+01  0.4698893521E-01  0.5860169342E+01 -0.2475313910E-16 -0.6860351687E+00  0.6510731220E+15  0.5866060802E+01 -0.2442714146E-16 -0.6853349987E+00
  0.1646988935E+01  0.1000000000E+01  0.4698893521E-01  0.4424189800E+01 -0.1191810564E-15 -0.6756898080E+00  0.6510731220E+15  0.4425450944E+01 -0.1194422023E-15 -0.6722567927E+00
  0.1600000000E+01  0.1000000000E+01  0.4698893521E-01  0.2760594219E+01 -0.8692129294E-16  0.1708152547E+00  0.6510731220E+15  0.2769327060E+01 -0.8671125840E-16  0.1667849269E+00
  0.2000000000E+01  0.1000000000E+01  0.1429536967E+00 -0.2812411945E+00  0.2677925284E-17  0.5050405240E+02  0.6510731220E+15 -0.2566473433E+00  0.2694322000E-17  0.5044109113E+02
  0.1953011065E+01  0.1000000000E+01  0.1429536967E+00  0.2820593946E+01 -0.5126497732E-15  0.1651135970E+02  0.6510731220E+15  0.2809453128E+01 -0.5123007498E-15  0.1655134752E+02
  0.1857046303E+01  0.1000000000E+01  0.1429536967E+00  0.1280022581E+02 -0.2476003578E-15 -0.3564424437E+01  0.6510731220E+15  0.1280078868E+02 -0.2478978999E-15 -0.3554478962E+01
  0.1742953697E+01  0.1000000000E+01  0.1429536967E+00  0.9876475650E+01  0.1459017126E-16 -0.4308977140E+01  0.6510731220E+15  0.9881855198E+01  0.1448701067E-16 -0.4308012519E+01
  0.1646988935E+01  0.1000000000E+01  0.1429536967E+00  0.8939252995E+01 -0.1527307221E-15 -0.2323929834E+01  0.6510731220E+15  0.8942334411E+01 -0.1524526840E-15 -0.2321012957E+01
  0.1600000000E+01  0.1000000000E+01  0.1429536967E+00  0.5464382291E+01 -0.2842435358E-15 -0.2035487444E+01  0.6510731220E+15  0.5489332580E+01 -0.2845708685E-15 -0.2038087214E+01
  0.2000000000E+01  0.1000000000E+01  0.2570463033E+00  0.1884943890E-01  0.1075033184E-17  0.4987260399E+02  0.6510731220E+15  0.1807355806E-01  0.1022988422E-17  0.4987816873E+02