TITLE = "Generated from ../MESH/Convergence_0000000000.hmesh and Convergence_0000001600.hsol"
VARIABLES = "x","y","z","veloT_x","veloT_y","veloT_z","slr_4","velo_x","velo_y","velo_z"
ZONE I=6, J=6, K=1, F=POINT
  0.4000000000E+00  0.1000000000E+01  0.0000000000E+00 -0.1042473661E-01  0.2931913629E-19  0.7432991411E-02  0.6218674647E+15 -0.1094000644E-01  0.2953350266E-19  0.7506787396E-02
  0.3530110648E+00  0.1000000000E+01  0.0000000000E+00 -0.2903791349E-03  0.1043423657E-19 -0.5016498827E-03  0.6218674647E+15 -0.7104853467E-03  0.1159750612E-19 -0.4340265504E-03
  0.2570463033E+00  0.1000000000E+01  0.0000000000E+00  0.5686600328E-03  0.1722164579E-20  0.2230062756E-02  0.6218674647E+15  0.3672674837E-03  0.1854375323E-20  0.2204877604E-02
  0.1429536967E+00  0.1000000000E+01  0.0000000000E+00 -0.3549849139E-03  0.3842825396E-21 -0.1105985302E-02  0.6218674647E+15 -0.5581219223E-03  0.3873453164E-21 -0.1127641778E-02
  0.4698893521E-01  0.1000000000E+01  0.0000000000E+00  0.2214572065E-02 -0.1888783035E-20  0.1781841150E-02  0.6218674647E+15  0.2092687109E-02 -0.1842104806E-20  0.1826847032E-02
  0.0000000000E+00  0.1000000000E+01  0.0000000000E+00 -0.7509508345E-02  0.1104949437E-22  0.2020569631E-02  0.6218674647E+15 -0.7459048297E-02  0.1275219601E-22  0.2048321330E-02
  0.4000000000E+00  0.1000000000E+01  0.4698893521E-01  0.2564188077E+00  0.2575793042E-17 -0.5594033973E-01  0.6218674647E+15  0.2572335899E+00  0.2571809456E-17 -0.5468713632E-01
  0.3530110648E+00  0.1000000000E+01  0.4698893521E-01  0.1172315682E+00  0.2233157784E-17 -0.1697900956E-01  0.6218674647E+15  0.1169145682E+00  0.2235307132E-17 -0.1515405261E-01
  0.2570463033E+00  0.1000000000E+01  0.4698893521E-01  0.9354818490E-01  0.6662107730E-18 -0.2375052107E-01  0.6218674647E+15  0.9349968918E-01  0.6712219516E-18 -0.2062668446E-01
  0.1429536967E+00  0.1000000000E+01  0.4698893521E-01  0.5229820450E-02  0.6687922860E-19 -0.1303151528E-01  0.6218674647E+15  0.6099569989E-02  0.7032909997E-19 -0.1150380469E-01
  0.4698893521E-01  0.1000000000E+01  0.4698893521E-01 -0.5233025416E-03 -0.3048962580E-20 -0.1011681689E-01  0.6218674647E+15 -0.7466861359E-04 -0.2591068995E-20 -0.1029801409E-01
  0.0000000000E+00  0.1000000000E+01  0.4698893521E-01 -0.1819501820E-01  0.9304791756E-21  0.1957344168E-02  0.6218674647E+15 -0.1814109562E-01  0.9534865572E-21  0.2051214317E-02
  0.4000000000E+00  0.1000000000E+01  0.1429536967E+00  0.5255245707E+00  0.8497642163E-17 -0.1300105460E+00  0.6218674647E+15  0.5249563373E+00  0.8491468876E-17 -0.1348136812E+00
  0.3530110648E+00  0.1000000000E+01  0.1429536967E+00  0.2769936904E+00  0.4838508241E-17 -0.1643689098E+00  0.6218674647E+15  0.2747100965E+00  0.4862555899E-17 -0.1678064905E+00
  0.2570463033E+00  0.1000000000E+01  0.1429536967E+00  0.1984788839E+00  0.1270684383E-17 -0.9986283855E-01  0.6218674647E+15  0.1977115943E+00  0.1270359817E-17 -0.1012803767E+00
  0.1429536967E+00  0.1000000000E+01  0.1429536967E+00  0.2394376646E-01  0.2183633715E-18 -0.1119582275E+00  0.6218674647E+15  0.2584447501E-01  0.2187058692E-18 -0.1118082977E+00
  0.4698893521E-01  0.1000000000E+01  0.1429536967E+00 -0.8440246057E-02  0.1322312448E-19 -0.1239981688E-01  0.6218674647E+15 -0.7135111349E-02  0.1326410694E-19 -0.1248233640E-01
  0.0000000000E+00  0.1000000000E+01  0.1429536967E+00 -0.2130747690E-01  0.1333548845E-21 -0.1706122764E-02  0.6218674647E+15 -0.2129465343E-01  0.3186815790E-21 -0.1565478123E-02
  0.4000000000E+00  0.1000000000E+01  0.2570463033E+00  0.5298383402E+00  0.9899176731E-18 -0.3264402548E+00  0.6218674647E+15  0.5226843240E+00  0.9773866063E-18 -0.3407819520E+00
  0.3530110648E+00  0.1000000000E+01  0.2570463033E+00  0.3838390014E+00 -0.1137266296E-18 -0.3703938184E+00  0.6218674647E+15  0.3753985206E+00 -0.2566282272E-18 -0.3806067111E+00
  0.2570463033E+00  0.1000000000E+01  0.2570463033E+00  0.2419225984E+00  0.3268176075E-22 -0.2507050013E+00  0.6218674647E+15  0.2364847805E+00  0.6984927310E-21 -0.2526310657E+00
  0.1429536967E+00  0.1000000000E+01  0.2570463033E+00  0.6128132221E-01  0.3155800839E-18 -0.2550659331E+00  0.6218674647E+15  0.6242004219E-01  0.3156906194E-18 -0.2539800732E+00
  0.4698893521E-01  0.1000000000E+01  0.2570463033E+00  0.1504463755E-02  0.5408151620E-18 -0.4610048973E-01  0.6218674647E+15  0.4005812913E-02  0.5361546925E-18 -0.4650017646E-01
  0.0000000000E+00  0.1000000000E+01  0.2570463033E+00 -0.1425394592E-01 -0.3613763578E-20 -0.1215447250E-02  0.6218674647E+15 -0.1418396020E-01 -0.3993274084E-20 -0.1445091027E-02
  0.4000000000E+00  0.1000000000E+01  0.3530110648E+00  0.5129745105E+00  0.2767975269E-18 -0.4948141185E+00  0.6218674647E+15  0.4986837872E+00  0.2900676672E-18 -0.5108237933E+00
  0.3530110648E+00  0.1000000000E+01  0.3530110648E+00  0.3762317717E+00 -0.3001354377E-20 -0.5140086096E+00  0.6218674647E+15  0.3557176828E+00 -0.1472092263E-20 -0.5251829955E+00
  0.2570463033E+00  0.1000000000E+01  0.3530110648E+00  0.2443221109E+00 -0.6616323511E-18 -0.3932058092E+00  0.6218674647E+15  0.2319720719E+00 -0.6553064807E-18 -0.3937582040E+00
  0.1429536967E+00  0.1000000000E+01  0.3530110648E+00  0.6022004151E-01  0.3867307326E-18 -0.3650582648E+00  0.6218674647E+15  0.6325416967E-01  0.3758112190E-18 -0.3638067909E+00
  0.4698893521E-01  0.1000000000E+01  0.3530110648E+00  0.1134416189E-02  0.5361431028E-19 -0.1014178973E+00  0.6218674647E+15  0.5214641482E-02  0.5830673373E-19 -0.1019472508E+00
  0.0000000000E+00  0.1000000000E+01  0.3530110648E+00 -0.1425111359E-01  0.4704266371E-20 -0.1340327076E-02  0.6218674647E+15 -0.1421146274E-01  0.4463631598E-20 -0.1684087698E-02
  0.4000000000E+00  0.1000000000E+01  0.4000000000E+00  0.4738268801E+00  0.1882061620E-17 -0.5730323702E+00  0.6218674647E+15  0.4579524050E+00  0.1880682775E-17 -0.5858269873E+00
  0.3530110648E+00  0.1000000000E+01  0.4000000000E+00  0.3935368535E+00  0.1249040396E-17 -0.5868665923E+00  0.6218674647E+15  0.3685912400E+00  0.1298334582E-17 -0.5988300175E+00
  0.2570463033E+00  0.1000000000E+01  0.4000000000E+00  0.2437694055E+00 -0.1130720360E-17 -0.4598698051E+00  0.6218674647E+15  0.2287874292E+00 -0.1175392809E-17 -0.4671846179E+00
  0.1429536967E+00  0.1000000000E+01  0.4000000000E+00  0.6931265476E-01  0.1209238399E-18 -0.4222636096E+00  0.6218674647E+15  0.7225530471E-01  0.1053459929E-18 -0.4251299794E+00
  0.4698893521E-01  0.1000000000E+01  0.4000000000E+00 -0.3597512195E-02 -0.9239516043E-19 -0.1288405261E+00  0.6218674647E+15  0.3781379951E-03 -0.9333279895E-19 -0.1291825771E+00
  0.0000000000E+00  0.1000000000E+01  0.4000000000E+00 -0.6725124827E-02  0.7641463838E-20 -0.2995800232E-02  0.6218674647E+15 -0.6347751005E-02  0.7784965035E-20 -0.2906357663E-02
ZONE I=6, J=6, K=1, F=POINT
  0.8000000000E+00  0.1000000000E+01  0.0000000000E+00  0.1967892638E-01 -0.7340905791E-19 -0.1194356263E-01  0.6218674647E+15  0.1908983214E-01 -0.7423734753E-19 -0.1181113099E-01
  0.7530110648E+00  0.1000000000E+01  0.0000000000E+00  0.3948448381E-02  0.1390826995E-18  0.5640967886E-02  0.6218674647E+15  0.3587755263E-02  0.1364309466E-18  0.5599198905E-02
  0.6570463033E+00  0.1000000000E+01  0.0000000000E+00  0.1439369369E-02  0.4718879299E-19  0.1418603936E-06  0.6218674647E+15  0.1108742554E-02  0.4140369637E-19  0.2700636970E-05
  0.5429536967E+00  0.1000000000E+01  0.0000000000E+00  0.2845738320E-02  0.8281787800E-19  0.6607759800E-02  0.6218674647E+15  0.2499324054E-02  0.7329184840E-19  0.6629902104E-02
  0.4469889352E+00  0.1000000000E+01  0.0000000000E+00 -0.1359263157E-03  0.2012658616E-19  0.4846746482E-03  0.6218674647E+15 -0.2768232093E-03  0.1819180588E-19  0.4860527619E-03
  0.4000000000E+00  0.1000000000E+01  0.0000000000E+00  0.1606369443E-01  0.3295540946E-19  0.7116334351E-02  0.6218674647E+15  0.1589418457E-01  0.3319173275E-19  0.7195414601E-02
  0.8000000000E+00  0.1000000000E+01  0.4698893521E-01  0.3240351608E+00 -0.2632900892E-16 -0.4862447369E-02  0.6218674647E+15  0.3268429959E+00 -0.2635889390E-16  0.1569266938E-02
  0.7530110648E+00  0.1000000000E+01  0.4698893521E-01  0.5217289094E+00 -0.2609798569E-16 -0.6570649091E-01  0.6218674647E+15  0.5251190471E+00 -0.2629368095E-16 -0.6078420408E-01
  0.6570463033E+00  0.1000000000E+01  0.4698893521E-01  0.3056538026E+00 -0.5657527984E-17 -0.3534548896E-01  0.6218674647E+15  0.3088142772E+00 -0.5616876879E-17 -0.3297163102E-01
  0.5429536967E+00  0.1000000000E+01  0.4698893521E-01  0.3291317057E+00  0.4359927124E-17 -0.2397158554E-01  0.6218674647E+15  0.3321141692E+00  0.4411489961E-17 -0.2293220581E-01
  0.4469889352E+00  0.1000000000E+01  0.4698893521E-01  0.1948777604E+00  0.3645907887E-17 -0.1365553769E-01  0.6218674647E+15  0.1972796189E+00  0.3631270268E-17 -0.1269763975E-01
  0.4000000000E+00  0.1000000000E+01  0.4698893521E-01  0.2980554113E+00  0.2337214628E-17 -0.5670351451E-01  0.6218674647E+15  0.2991457684E+00  0.2331308330E-17 -0.5543759725E-01
  0.8000000000E+00  0.1000000000E+01  0.1429536967E+00  0.8436369231E+00 -0.5584714651E-16 -0.3410704335E+00  0.6218674647E+15  0.8498195865E+00 -0.5566703590E-16 -0.3368586154E+00
  0.7530110648E+00  0.1000000000E+01  0.1429536967E+00  0.1166626490E+01 -0.3659965506E-16 -0.2107437072E+00  0.6218674647E+15  0.1175300065E+01 -0.3667348255E-16 -0.2093959085E+00
  0.6570463033E+00  0.1000000000E+01  0.1429536967E+00  0.7680106554E+00 -0.7093024965E-17 -0.2205658347E+00  0.6218674647E+15  0.7750002496E+00 -0.7376505061E-17 -0.2255601540E+00
  0.5429536967E+00  0.1000000000E+01  0.1429536967E+00  0.7296939929E+00  0.8715415262E-17 -0.8094051468E-01  0.6218674647E+15  0.7328528039E+00  0.8798801016E-17 -0.8911960779E-01
  0.4469889352E+00  0.1000000000E+01  0.1429536967E+00  0.4481675481E+00  0.8600136578E-17 -0.1563494296E+00  0.6218674647E+15  0.4491107981E+00  0.8623145230E-17 -0.1626501812E+00
  0.4000000000E+00  0.1000000000E+01  0.1429536967E+00  0.5768770830E+00  0.9213397064E-17 -0.1294764024E+00  0.6218674647E+15  0.5762622223E+00  0.9209575021E-17 -0.1342787648E+00
  0.8000000000E+00  0.1000000000E+01  0.2570463033E+00  0.1424307174E+01 -0.1455698031E-16 -0.7417786879E+00  0.6218674647E+15  0.1437164531E+01 -0.1454304767E-16 -0.7439941939E+00
  0.7530110648E+00  0.1000000000E+01  0.2570463033E+00  0.1369020504E+01 -0.1183686657E-16 -0.5209586796E+00  0.6218674647E+15  0.1385540911E+01 -0.1197648820E-16 -0.5252765550E+00
  0.6570463033E+00  0.1000000000E+01  0.2570463033E+00  0.1024782175E+01 -0.7021278466E-17 -0.5067504675E+00  0.6218674647E+15  0.1039764887E+01 -0.7423076729E-17 -0.5175422734E+00
  0.5429536967E+00  0.1000000000E+01  0.2570463033E+00  0.8099391883E+00 -0.9557908948E-19 -0.2727789434E+00  0.6218674647E+15  0.8147540313E+00 -0.1108279285E-19 -0.2909983198E+00
  0.4469889352E+00  0.1000000000E+01  0.2570463033E+00  0.5692817748E+00  0.7727416890E-18 -0.3738751662E+00  0.6218674647E+15  0.5650645476E+00  0.5527055570E-18 -0.3915110989E+00
  0.4000000000E+00  0.1000000000E+01  0.2570463033E+00  0.5604643935E+00  0.1016747761E-17 -0.3258263492E+00  0.6218674647E+15  0.5535212284E+00  0.1005346857E-17 -0.3401957484E+00
  0.8000000000E+00  0.1000000000E+01  0.3530110648E+00  0.1307701346E+01 -0.2250436857E-17 -0.1022298029E+01  0.6218674647E+15  0.1324435073E+01 -0.2258923094E-17 -0.1023782242E+01
  0.7530110648E+00  0.1000000000E+01  0.3530110648E+00  0.1310003751E+01  0.3030993527E-17 -0.8482203191E+00  0.6218674647E+15  0.1329637987E+01  0.4082972921E-17 -0.8502758737E+00
  0.6570463033E+00  0.1000000000E+01  0.3530110648E+00  0.9832959576E+00 -0.4016713935E-17 -0.7444375888E+00  0.6218674647E+15  0.1005909185E+01 -0.4699330555E-17 -0.7497629865E+00
  0.5429536967E+00  0.1000000000E+01  0.3530110648E+00  0.7722464370E+00 -0.5022500936E-17 -0.4846582487E+00  0.6218674647E+15  0.7828949523E+00 -0.5534408488E-17 -0.5001539713E+00
  0.4469889352E+00  0.1000000000E+01  0.3530110648E+00  0.5190123704E+00 -0.1464586332E-18 -0.5331683779E+00  0.6218674647E+15  0.5108402810E+00 -0.9352025128E-20 -0.5512477661E+00
  0.4000000000E+00  0.1000000000E+01  0.3530110648E+00  0.5458386759E+00  0.2503397570E-18 -0.4946374721E+00  0.6218674647E+15  0.5310746357E+00  0.2651127707E-18 -0.5106549349E+00
  0.8000000000E+00  0.1000000000E+01  0.4000000000E+00  0.1281573742E+01 -0.1144317521E-16 -0.1194105319E+01  0.6218674647E+15  0.1299904198E+01 -0.1144878094E-16 -0.1195323568E+01
  0.7530110648E+00  0.1000000000E+01  0.4000000000E+00  0.1169431515E+01 -0.6950011399E-17 -0.9658333083E+00  0.6218674647E+15  0.1188799482E+01 -0.6767522623E-17 -0.9664490933E+00
  0.6570463033E+00  0.1000000000E+01  0.4000000000E+00  0.9113382868E+00 -0.4682767923E-17 -0.8622884660E+00  0.6218674647E+15  0.9370475283E+00 -0.4604776293E-17 -0.8642841600E+00
  0.5429536967E+00  0.1000000000E+01  0.4000000000E+00  0.7033668342E+00  0.1089371289E-17 -0.6177123817E+00  0.6218674647E+15  0.7174574659E+00  0.1448758524E-17 -0.6280428977E+00
  0.4469889352E+00  0.1000000000E+01  0.4000000000E+00  0.5411417453E+00  0.2481205814E-17 -0.6309541219E+00  0.6218674647E+15  0.5321000665E+00  0.2292181308E-17 -0.6428765882E+00
  0.4000000000E+00  0.1000000000E+01  0.4000000000E+00  0.4854737225E+00  0.1897201105E-17 -0.5722763528E+00  0.6218674647E+15  0.4698642876E+00  0.1898901069E-17 -0.5851464735E+00
ZONE I=6, J=6, K=1, F=POINT
  0.1200000000E+01  0.1000000000E+01  0.0000000000E+00 -0.3036616060E-01  0.6496578083E-19  0.3685845856E-01  0.6218674647E+15 -0.3136036219E-01  0.6649455819E-19  0.3656729160E-01
  0.1153011065E+01  0.1000000000E+01  0.0000000000E+00 -0.3586970026E-02 -0.1185417153E-18 -0.9552385825E-02  0.6218674647E+15 -0.4157636771E-02 -0.1398547721E-18 -0.9562177392E-02
  0.1057046303E+01  0.1000000000E+01  0.0000000000E+00  0.3888441215E-02  0.7208231455E-19  0.6015531963E-02  0.6218674647E+15  0.3526223489E-02  0.6183638989E-19  0.6027188803E-02
  0.9429536967E+00  0.1000000000E+01  0.0000000000E+00 -0.3280103546E-03  0.2014659934E-19 -0.8284779684E-02  0.6218674647E+15 -0.7377475814E-03  0.2252909049E-19 -0.8249647470E-02
  0.8469889352E+00  0.1000000000E+01  0.0000000000E+00  0.5345616662E-02 -0.8574341227E-20  0.5183017978E-02  0.6218674647E+15  0.4929239928E-02 -0.8718788199E-20  0.5164744781E-02
  0.8000000000E+00  0.1000000000E+01  0.0000000000E+00 -0.2545084018E-01 -0.8281132891E-19 -0.1140813925E-01  0.6218674647E+15 -0.2591070597E-01 -0.8377173824E-19 -0.1128186297E-01
  0.1200000000E+01  0.1000000000E+01  0.4698893521E-01  0.1956452742E+01 -0.4132482815E-16 -0.1878207210E+00  0.6218674647E+15  0.1957711387E+01 -0.4135124231E-16 -0.1788074122E+00
  0.1153011065E+01  0.1000000000E+01  0.4698893521E-01  0.1309315126E+01 -0.2604481645E-16 -0.4244909356E-01  0.6218674647E+15  0.1310613122E+01 -0.2608948413E-16 -0.3389924041E-01
  0.1057046303E+01  0.1000000000E+01  0.4698893521E-01  0.1239886427E+01 -0.1160950724E-16 -0.8491399386E-01  0.6218674647E+15  0.1242071274E+01 -0.1157499945E-16 -0.7631949754E-01
  0.9429536967E+00  0.1000000000E+01  0.4698893521E-01  0.7052915470E+00 -0.1629517569E-16 -0.8229227051E-01  0.6218674647E+15  0.7081180991E+00 -0.1636442086E-16 -0.7477084502E-01
  0.8469889352E+00  0.1000000000E+01  0.4698893521E-01  0.6417616267E+00 -0.3068122788E-16 -0.8952278649E-01  0.6218674647E+15  0.6444979625E+00 -0.3080744686E-16 -0.8278767653E-01
  0.8000000000E+00  0.1000000000E+01  0.4698893521E-01  0.2633053982E+00 -0.2563736581E-16 -0.2795819334E-02  0.6218674647E+15  0.2661762537E+00 -0.2567507043E-16  0.3581959000E-02
  0.1200000000E+01  0.1000000000E+01  0.1429536967E+00  0.4217697729E+01 -0.5739419938E-16 -0.4812080996E+00  0.6218674647E+15  0.4226050342E+01 -0.5751023656E-16 -0.4639317231E+00
  0.1153011065E+01  0.1000000000E+01  0.1429536967E+00  0.2860384421E+01 -0.6655754807E-16 -0.6867121979E+00  0.6218674647E+15  0.2865062564E+01 -0.6646877489E-16 -0.6715456536E+00
  0.1057046303E+01  0.1000000000E+01  0.1429536967E+00  0.2660148904E+01 -0.3994711655E-16 -0.4919526268E+00  0.6218674647E+15  0.2664541226E+01 -0.3995821574E-16 -0.4807187276E+00
  0.9429536967E+00  0.1000000000E+01  0.1429536967E+00  0.1598715205E+01 -0.3592677465E-16 -0.6389643302E+00  0.6218674647E+15  0.1603509593E+01 -0.3592771369E-16 -0.6304432412E+00
  0.8469889352E+00  0.1000000000E+01  0.1429536967E+00  0.1432873376E+01 -0.5259564027E-16 -0.3446191987E+00  0.6218674647E+15  0.1437562083E+01 -0.5273312779E-16 -0.3384146412E+00
  0.8000000000E+00  0.1000000000E+01  0.1429536967E+00  0.7598863233E+00 -0.5806215848E-16 -0.3426025793E+00  0.6218674647E+15  0.7673164650E+00 -0.5789929809E-16 -0.3383884378E+00
  0.1200000000E+01  0.1000000000E+01  0.2570463033E+00  0.3667824261E+01 -0.1534154176E-16 -0.1309794543E+01  0.6218674647E+15  0.3676188545E+01 -0.1530602294E-16 -0.1307912782E+01
  0.1153011065E+01  0.1000000000E+01  0.2570463033E+00  0.3264292734E+01 -0.5471722904E-16 -0.1558825671E+01  0.6218674647E+15  0.3272440792E+01 -0.5539605161E-16 -0.1556983397E+01
  0.1057046303E+01  0.1000000000E+01  0.2570463033E+00  0.2709866319E+01 -0.4160375680E-16 -0.1188133553E+01  0.6218674647E+15  0.2717499063E+01 -0.4160761567E-16 -0.1185689951E+01
  0.9429536967E+00  0.1000000000E+01  0.2570463033E+00  0.2039993800E+01 -0.3855269241E-16 -0.1312142488E+01  0.6218674647E+15  0.2046921830E+01 -0.3888600350E-16 -0.1310030249E+01
  0.8469889352E+00  0.1000000000E+01  0.2570463033E+00  0.1702459464E+01 -0.1657726484E-16 -0.7818835215E+00  0.6218674647E+15  0.1712136127E+01 -0.1629455603E-16 -0.7820900396E+00
  0.8000000000E+00  0.1000000000E+01  0.2570463033E+00  0.1385944455E+01 -0.1473629132E-16 -0.7440364149E+00  0.6218674647E+15  0.1399610333E+01 -0.1472305062E-16 -0.7460130000E+00
  0.1200000000E+01  0.1000000000E+01  0.3530110648E+00  0.3414514977E+01  0.1053384295E-16 -0.2174799342E+01  0.6218674647E+15  0.3420815203E+01  0.1055532394E-16 -0.2186357357E+01
  0.1153011065E+01  0.1000000000E+01  0.3530110648E+00  0.2839620581E+01 -0.9550947494E-17 -0.2095432415E+01  0.6218674647E+15  0.2843494845E+01 -0.9576390300E-17 -0.2104384378E+01
  0.1057046303E+01  0.1000000000E+01  0.3530110648E+00  0.2424893423E+01 -0.2385853055E-16 -0.1744983517E+01  0.6218674647E+15  0.2429579586E+01 -0.2383793731E-16 -0.1747358400E+01
  0.9429536967E+00  0.1000000000E+01  0.3530110648E+00  0.1826821532E+01 -0.2646517071E-16 -0.1639858298E+01  0.6218674647E+15  0.1834715106E+01 -0.2670473123E-16 -0.1639450285E+01
  0.8469889352E+00  0.1000000000E+01  0.3530110648E+00  0.1621247452E+01 -0.6210749222E-17 -0.1159935077E+01  0.6218674647E+15  0.1633611970E+01 -0.5894320185E-17 -0.1160699829E+01
  0.8000000000E+00  0.1000000000E+01  0.3530110648E+00  0.1261536287E+01 -0.2207649718E-17 -0.1022453275E+01  0.6218674647E+15  0.1278558185E+01 -0.2208992745E-17 -0.1024013225E+01
  0.1200000000E+01  0.1000000000E+01  0.4000000000E+00  0.2949871504E+01  0.8933010381E-17 -0.2359018095E+01  0.6218674647E+15  0.2954894474E+01  0.8945655864E-17 -0.2361382850E+01
  0.1153011065E+01  0.1000000000E+01  0.4000000000E+00  0.2735195068E+01  0.2474806929E-17 -0.2460138528E+01  0.6218674647E+15  0.2736420575E+01  0.2635042209E-17 -0.2462939826E+01
  0.1057046303E+01  0.1000000000E+01  0.4000000000E+00  0.2192451528E+01 -0.1613442821E-16 -0.1978253348E+01  0.6218674647E+15  0.2195082414E+01 -0.1601842840E-16 -0.1979439456E+01
  0.9429536967E+00  0.1000000000E+01  0.4000000000E+00  0.1731072704E+01 -0.2814056135E-16 -0.1850668660E+01  0.6218674647E+15  0.1738851319E+01 -0.2806929821E-16 -0.1849431203E+01
  0.8469889352E+00  0.1000000000E+01  0.4000000000E+00  0.1433567740E+01 -0.1762219392E-16 -0.1293264147E+01  0.6218674647E+15  0.1446996861E+01 -0.1760049289E-16 -0.1293463216E+01
  0.8000000000E+00  0.1000000000E+01  0.4000000000E+00  0.1277367908E+01 -0.1143113403E-16 -0.1197042742E+01  0.6218674647E+15  0.1295146895E+01 -0.1143574143E-16 -0.1198088959E+01
ZONE I=6, J=6, K=1, F=POINT
  0.1600000000E+01  0.1000000000E+01  0.0000000000E+00  0.1308086403E+00 -0.8584209683E-18 -0.7245767009E-01  0.6218674647E+15  0.1290414833E+00 -0.9835777091E-18 -0.7251005682E-01
  0.1553011065E+01  0.1000000000E+01  0.0000000000E+00  0.1108187839E-01 -0.1367262800E-17  0.4552237418E-01  0.6218674647E+15  0.9212048345E-02 -0.1313518483E-17  0.4524311558E-01
  0.1457046303E+01  0.1000000000E+01  0.0000000000E+00 -0.6498655778E-02 -0.9464028741E-19 -0.3397146903E-02  0.6218674647E+15 -0.8519206401E-02 -0.6465460459E-19 -0.3367865947E-02
  0.1342953697E+01  0.1000000000E+01  0.0000000000E+00  0.6293699302E-02  0.4671077299E-18  0.2997248205E-01  0.6218674647E+15  0.4391845123E-02  0.3624713949E-18  0.2986223243E-01
  0.1246988935E+01  0.1000000000E+01  0.0000000000E+00 -0.6392555954E-02  0.1214943910E-18 -0.8171978906E-02  0.6218674647E+15 -0.8138639957E-02  0.1080987283E-18 -0.8128252357E-02
  0.1200000000E+01  0.1000000000E+01  0.0000000000E+00  0.5926098106E-01  0.6954309733E-19  0.3692257438E-01  0.6218674647E+15  0.5809524660E-01  0.7114414209E-19  0.3663370057E-01
  0.1600000000E+01  0.1000000000E+01  0.4698893521E-01  0.2805690596E+01 -0.8923505516E-16  0.1857413184E+00  0.6218674647E+15  0.2802646239E+01 -0.8914851291E-16  0.2068937327E+00
  0.1553011065E+01  0.1000000000E+01  0.4698893521E-01  0.3212005707E+01 -0.4562524979E-16 -0.3119390078E+00  0.6218674647E+15  0.3210112872E+01 -0.4570925305E-16 -0.2921171004E+00
  0.1457046303E+01  0.1000000000E+01  0.4698893521E-01  0.2187581708E+01 -0.6379166770E-17 -0.1002001769E+00  0.6218674647E+15  0.2186052697E+01 -0.6293278610E-17 -0.8267795646E-01
  0.1342953697E+01  0.1000000000E+01  0.4698893521E-01  0.2175339729E+01  0.3119332126E-16 -0.6039688446E-01  0.6218674647E+15  0.2173991549E+01  0.3118621840E-16 -0.4662527540E-01
  0.1246988935E+01  0.1000000000E+01  0.4698893521E-01  0.1656439424E+01 -0.4181304772E-17 -0.1147422965E-01  0.6218674647E+15  0.1655906325E+01 -0.4216586558E-17 -0.1370491378E-02
  0.1200000000E+01  0.1000000000E+01  0.4698893521E-01  0.2054338038E+01 -0.4554259044E-16 -0.1934944139E+00  0.6218674647E+15  0.2053823822E+01 -0.4554290202E-16 -0.1841380602E+00
  0.1600000000E+01  0.1000000000E+01  0.1429536967E+00  0.5294359709E+01 -0.2673714407E-15 -0.2084308903E+01  0.6218674647E+15  0.5281118132E+01 -0.2673329421E-15 -0.2051389062E+01
  0.1553011065E+01  0.1000000000E+01  0.1429536967E+00  0.6887322630E+01 -0.1564024509E-15 -0.1159918747E+01  0.6218674647E+15  0.6887862416E+01 -0.1567263257E-15 -0.1127846966E+01
  0.1457046303E+01  0.1000000000E+01  0.1429536967E+00  0.4742893715E+01  0.3124461409E-16 -0.9905327014E+00  0.6218674647E+15  0.4746394870E+01  0.3125564828E-16 -0.9618857137E+00
  0.1342953697E+01  0.1000000000E+01  0.1429536967E+00  0.4764527516E+01  0.1075299624E-15 -0.1517885769E+00  0.6218674647E+15  0.4768034134E+01  0.1076639741E-15 -0.1285553655E+00
  0.1246988935E+01  0.1000000000E+01  0.1429536967E+00  0.3567406935E+01  0.2888959699E-16 -0.6047047860E+00  0.6218674647E+15  0.3571627410E+01  0.2864077848E-16 -0.5850318514E+00
  0.1200000000E+01  0.1000000000E+01  0.1429536967E+00  0.4381249090E+01 -0.6154557588E-16 -0.4763576506E+00  0.6218674647E+15  0.4380869474E+01 -0.6154798444E-16 -0.4595499201E+00
  0.1600000000E+01  0.1000000000E+01  0.2570463033E+00  0.9065849781E+01  0.6018805327E-16 -0.4269328260E+01  0.6218674647E+15  0.9070705841E+01  0.6015862516E-16 -0.4261088737E+01
  0.1553011065E+01  0.1000000000E+01  0.2570463033E+00  0.7899036571E+01  0.8347548300E-16 -0.2936883096E+01  0.6218674647E+15  0.7904967132E+01  0.8357624389E-16 -0.2925092181E+01
  0.1457046303E+01  0.1000000000E+01  0.2570463033E+00  0.6477821396E+01  0.1696684890E-15 -0.2445621744E+01  0.6218674647E+15  0.6486897645E+01  0.1700181853E-15 -0.2437154517E+01
  0.1342953697E+01  0.1000000000E+01  0.2570463033E+00  0.5010257998E+01  0.1332494482E-15 -0.9884918651E+00  0.6218674647E+15  0.5019480787E+01  0.1337007915E-15 -0.9836451750E+00
  0.1246988935E+01  0.1000000000E+01  0.2570463033E+00  0.3999191539E+01  0.3943688293E-16 -0.1546837067E+01  0.6218674647E+15  0.4007637179E+01  0.3984878928E-16 -0.1544163523E+01
  0.1200000000E+01  0.1000000000E+01  0.2570463033E+00  0.3708885574E+01 -0.1568366436E-16 -0.1301864291E+01  0.6218674647E+15  0.3717228571E+01 -0.1565829907E-16 -0.1301826996E+01
  0.1600000000E+01  0.1000000000E+01  0.3530110648E+00  0.6879135866E+01  0.1139511382E-15 -0.5053584169E+01  0.6218674647E+15  0.6878482054E+01  0.1139619868E-15 -0.5058101033E+01
  0.1553011065E+01  0.1000000000E+01  0.3530110648E+00  0.6952830028E+01  0.1308389486E-15 -0.4598344768E+01  0.6218674647E+15  0.6961305176E+01  0.1308974638E-15 -0.4605833753E+01
  0.1457046303E+01  0.1000000000E+01  0.3530110648E+00  0.5704707092E+01  0.1538146323E-15 -0.3582931073E+01  0.6218674647E+15  0.5716773681E+01  0.1545305564E-15 -0.3592419703E+01
  0.1342953697E+01  0.1000000000E+01  0.3530110648E+00  0.4612514378E+01  0.1283589736E-15 -0.2312318417E+01  0.6218674647E+15  0.4624466315E+01  0.1287976196E-15 -0.2323502440E+01
  0.1246988935E+01  0.1000000000E+01  0.3530110648E+00  0.3454186313E+01  0.4412465274E-16 -0.2255290188E+01  0.6218674647E+15  0.3464531167E+01  0.4402887920E-16 -0.2267731741E+01
  0.1200000000E+01  0.1000000000E+01  0.3530110648E+00  0.3491206220E+01  0.1060199439E-16 -0.2175614284E+01  0.6218674647E+15  0.3494984750E+01  0.1060162208E-16 -0.2186770560E+01
  0.1600000000E+01  0.1000000000E+01  0.4000000000E+00  0.6856344530E+01  0.9739156912E-16 -0.5951748286E+01  0.6218674647E+15  0.6859144979E+01  0.9737180618E-16 -0.5959644652E+01
  0.1553011065E+01  0.1000000000E+01  0.4000000000E+00  0.6074505979E+01  0.1274016637E-15 -0.4714634696E+01  0.6218674647E+15  0.6084993469E+01  0.1273724956E-15 -0.4722422186E+01
  0.1457046303E+01  0.1000000000E+01  0.4000000000E+00  0.5392454577E+01  0.1291030352E-15 -0.4106664120E+01  0.6218674647E+15  0.5403904756E+01  0.1290516682E-15 -0.4112591644E+01
  0.1342953697E+01  0.1000000000E+01  0.4000000000E+00  0.4161184839E+01  0.1239461233E-15 -0.2625777445E+01  0.6218674647E+15  0.4174575012E+01  0.1245654038E-15 -0.2633064015E+01
  0.1246988935E+01  0.1000000000E+01  0.4000000000E+00  0.3373444313E+01  0.3603898340E-16 -0.2710779111E+01  0.6218674647E+15  0.3382326819E+01  0.3606530748E-16 -0.2714386712E+01
  0.1200000000E+01  0.1000000000E+01  0.4000000000E+00  0.2926897049E+01  0.9186428016E-17 -0.2348775053E+01  0.6218674647E+15  0.2931687570E+01  0.9189338408E-17 -0.2352741646E+01
ZONE I=6, J=6, K=1, F=POINT
  0.2000000000E+01  0.1000000000E+01  0.0000000000E+00  0.2402702792E+01  0.7230462836E-19  0.2123404832E+02  0.6218674647E+15  0.2430573196E+01  0.9369847492E-19  0.2215514000E+02
  0.1953011065E+01  0.1000000000E+01  0.0000000000E+00  0.1291263536E+01 -0.3732914235E-16 -0.1364825532E+00  0.6218674647E+15  0.1294914980E+01 -0.3608161017E-16 -0.1499430411E+00
  0.1857046303E+01  0.1000000000E+01  0.0000000000E+00 -0.3068118710E+00 -0.1883592467E-16  0.1524735402E+00  0.6218674647E+15 -0.3083370651E+00 -0.1936978446E-16  0.1508725223E+00
  0.1742953697E+01  0.1000000000E+01  0.0000000000E+00  0.1340776770E+00  0.2779567435E-18 -0.3837514833E-01  0.6218674647E+15  0.1340541262E+00  0.1907728424E-18 -0.3794111185E-01
  0.1646988935E+01  0.1000000000E+01  0.0000000000E+00 -0.1277121830E+00  0.3910795249E-18  0.6088012434E-01  0.6218674647E+15 -0.1283303696E+00  0.3530347745E-18  0.5974373911E-01
  0.1600000000E+01  0.1000000000E+01  0.0000000000E+00  0.8872866638E-01 -0.9361269890E-18 -0.8476338261E-01  0.6218674647E+15  0.8675010663E-01 -0.1063860881E-17 -0.8343565046E-01
  0.2000000000E+01  0.1000000000E+01  0.4698893521E-01 -0.1095471484E-01  0.7347843261E-18  0.4848299895E+02  0.6218674647E+15 -0.5347225527E-01  0.6828195950E-18  0.4865750260E+02
  0.1953011065E+01  0.1000000000E+01  0.4698893521E-01  0.1100158493E+02  0.1446839489E-15  0.1505547281E+01  0.6218674647E+15  0.1098742417E+02  0.1434178315E-15  0.1523551688E+01
  0.1857046303E+01  0.1000000000E+01  0.4698893521E-01  0.1182832355E+02  0.3165646673E-15 -0.1863836758E+01  0.6218674647E+15  0.1182616137E+02  0.3165376948E-15 -0.1853601243E+01
  0.1742953697E+01  0.1000000000E+01  0.4698893521E-01  0.5856114312E+01 -0.9578023717E-17 -0.7088723551E+00  0.6218674647E+15  0.5856735272E+01 -0.9236807210E-17 -0.6922257617E+00
  0.1646988935E+01  0.1000000000E+01  0.4698893521E-01  0.4322321896E+01 -0.1151439905E-15 -0.6866263282E+00  0.6218674647E+15  0.4319052405E+01 -0.1151786934E-15 -0.6633491500E+00
  0.1600000000E+01  0.1000000000E+01  0.4698893521E-01  0.2643455412E+01 -0.8638754908E-16  0.1712923099E+00  0.6218674647E+15  0.2649694612E+01 -0.8610972500E-16  0.1872148701E+00
  0.2000000000E+01  0.1000000000E+01  0.1429536967E+00 -0.2809332924E+00  0.2590753218E-17  0.5050352345E+02  0.6218674647E+15 -0.2564831148E+00  0.2605821609E-17  0.5043980212E+02
  0.1953011065E+01  0.1000000000E+01  0.1429536967E+00  0.2818273713E+01 -0.5116090904E-15  0.1657652822E+02  0.6218674647E+15  0.2796464439E+01 -0.5123078383E-15  0.1661540657E+02
  0.1857046303E+01  0.1000000000E+01  0.1429536967E+00  0.1271303028E+02 -0.2421962416E-15 -0.3624836429E+01  0.6218674647E+15  0.1269554634E+02 -0.2413939110E-15 -0.3606030319E+01
  0.1742953697E+01  0.1000000000E+01  0.1429536967E+00  0.9543176187E+01  0.5522407872E-16 -0.4503248084E+01  0.6218674647E+15  0.9534732032E+01  0.5364184628E-16 -0.4479716161E+01
  0.1646988935E+01  0.1000000000E+01  0.1429536967E+00  0.8445643441E+01 -0.1419746718E-15 -0.2432224203E+01  0.6218674647E+15  0.8441970198E+01 -0.1418649369E-15 -0.2399725731E+01
  0.1600000000E+01  0.1000000000E+01  0.1429536967E+00  0.4928739134E+01 -0.2835303086E-15 -0.2083327951E+01  0.6218674647E+15  0.4951620127E+01 -0.2840025413E-15 -0.2055872787E+01
  0.2000000000E+01  0.1000000000E+01  0.2570463033E+00  0.1796735177E-01  0.1054581390E-17  0.4987203329E+02  0.6218674647E+15  0.1732444821E-01  0.9825012610E-18  0.4987710215E+02