TITLE = "Generated from ../MESH/Convergence_0000000000.hmesh and Convergence_0000003300.hsol"
VARIABLES = "x","y","z","veloT_x","veloT_y","veloT_z","slr_4","velo_x","velo_y","velo_z"
ZONE I=6, J=6, K=1, F=POINT
  0.4000000000E+00  0.1000000000E+01  0.0000000000E+00 -0.1108455243E-01  0.2867039173E-19  0.7702929816E-02  0.6319760828E+15 -0.1144907120E-01  0.2884784951E-19  0.7316650167E-02
  0.3530110648E+00  0.1000000000E+01  0.0000000000E+00 -0.6772423092E-03  0.8484945883E-20 -0.2601326259E-03  0.6319760828E+15 -0.1055219718E-02  0.6540215375E-20 -0.3290436278E-03
  0.2570463033E+00  0.1000000000E+01  0.0000000000E+00  0.6594965983E-03  0.1271968327E-20  0.2284608447E-02  0.6319760828E+15  0.1821723121E-03  0.5515029962E-21  0.2322311632E-02
  0.1429536967E+00  0.1000000000E+01  0.0000000000E+00 -0.2273034594E-03  0.2550922392E-21 -0.1138898977E-02  0.6319760828E+15 -0.8810181803E-03  0.7237264143E-22 -0.1105074737E-02
  0.4698893521E-01  0.1000000000E+01  0.0000000000E+00  0.2225228539E-02 -0.2125947358E-20  0.1873853680E-02  0.6319760828E+15  0.1721117418E-02 -0.2241667390E-20  0.1916338795E-02
  0.0000000000E+00  0.1000000000E+01  0.0000000000E+00 -0.7421032873E-02  0.1154395636E-22  0.1987637747E-02  0.6319760828E+15 -0.7461391384E-02  0.8633638825E-23  0.2056578382E-02
  0.4000000000E+00  0.1000000000E+01  0.4698893521E-01  0.2676642719E+00  0.2805089643E-17 -0.3295386309E-01  0.6319760828E+15  0.2674614004E+00  0.2806467489E-17 -0.2923464940E-01
  0.3530110648E+00  0.1000000000E+01  0.4698893521E-01  0.1298490054E+00  0.2486947625E-17  0.3177480636E-02  0.6319760828E+15  0.1297242260E+00  0.2484451916E-17  0.6103269217E-02
  0.2570463033E+00  0.1000000000E+01  0.4698893521E-01  0.1037971704E+00  0.9412615509E-18 -0.1020756360E-01  0.6319760828E+15  0.1034947712E+00  0.9433109490E-18 -0.9047502432E-02
  0.1429536967E+00  0.1000000000E+01  0.4698893521E-01  0.9502882547E-02  0.2133830954E-18 -0.7801233213E-02  0.6319760828E+15  0.8511185275E-02  0.2108729428E-18 -0.7501296515E-02
  0.4698893521E-01  0.1000000000E+01  0.4698893521E-01  0.8793911604E-03  0.3607292160E-19 -0.9729129187E-02  0.6319760828E+15 -0.2023007908E-03  0.3492854207E-19 -0.9076415004E-02
  0.0000000000E+00  0.1000000000E+01  0.4698893521E-01 -0.1798812009E-01  0.9090677034E-21  0.1928256231E-02  0.6319760828E+15 -0.1805229985E-01  0.8811584102E-21  0.2450548321E-02
  0.4000000000E+00  0.1000000000E+01  0.1429536967E+00  0.5891257229E+00  0.9247356739E-17 -0.9318644436E-01  0.6319760828E+15  0.5920447573E+00  0.9281728432E-17 -0.7675410495E-01
  0.3530110648E+00  0.1000000000E+01  0.1429536967E+00  0.3346471792E+00  0.5372403141E-17 -0.1357213084E+00  0.6319760828E+15  0.3384997642E+00  0.5279028398E-17 -0.1215971565E+00
  0.2570463033E+00  0.1000000000E+01  0.1429536967E+00  0.2424523416E+00  0.2018770093E-17 -0.8708911613E-01  0.6319760828E+15  0.2456155573E+00  0.2024902147E-17 -0.7885845253E-01
  0.1429536967E+00  0.1000000000E+01  0.1429536967E+00  0.4800694434E-01  0.6518612079E-18 -0.1109224014E+00  0.6319760828E+15  0.4823475267E-01  0.6542814034E-18 -0.1075500057E+00
  0.4698893521E-01  0.1000000000E+01  0.1429536967E+00 -0.1285674854E-03  0.1384979031E-18 -0.1235879292E-01  0.6319760828E+15 -0.1065458718E-02  0.1319648668E-18 -0.1095273477E-01
  0.0000000000E+00  0.1000000000E+01  0.1429536967E+00 -0.2138823981E-01 -0.1201374979E-21 -0.1760352252E-02  0.6319760828E+15 -0.2139397645E-01 -0.3673176133E-21 -0.1074449495E-02
  0.4000000000E+00  0.1000000000E+01  0.2570463033E+00  0.6696154904E+00  0.2698319094E-17 -0.3258043543E+00  0.6319760828E+15  0.6784087887E+00  0.2720054046E-17 -0.2999788266E+00
  0.3530110648E+00  0.1000000000E+01  0.2570463033E+00  0.5009929521E+00  0.2140977040E-17 -0.3793676193E+00  0.6319760828E+15  0.5123241240E+00  0.2465451081E-17 -0.3565335438E+00
  0.2570463033E+00  0.1000000000E+01  0.2570463033E+00  0.3211284519E+00  0.1338804957E-17 -0.2737115389E+00  0.6319760828E+15  0.3322340200E+00  0.1335960812E-17 -0.2575081855E+00
  0.1429536967E+00  0.1000000000E+01  0.2570463033E+00  0.1072314244E+00  0.1107977930E-17 -0.2766658711E+00  0.6319760828E+15  0.1134474252E+00  0.1105490428E-17 -0.2693619879E+00
  0.4698893521E-01  0.1000000000E+01  0.2570463033E+00  0.1938654975E-01  0.8680014016E-18 -0.5371403624E-01  0.6319760828E+15  0.2128368866E-01  0.8917633376E-18 -0.5188354503E-01
  0.0000000000E+00  0.1000000000E+01  0.2570463033E+00 -0.1408355036E-01 -0.3505393800E-20 -0.1764987467E-02  0.6319760828E+15 -0.1409323583E-01 -0.2738268400E-20 -0.1060268886E-02
  0.4000000000E+00  0.1000000000E+01  0.3530110648E+00  0.6996263962E+00  0.2883978857E-17 -0.5696517135E+00  0.6319760828E+15  0.7142934713E+00  0.2871976534E-17 -0.5436531412E+00
  0.3530110648E+00  0.1000000000E+01  0.3530110648E+00  0.5261312517E+00  0.2553598260E-17 -0.5934920528E+00  0.6319760828E+15  0.5426029365E+00  0.2560882387E-17 -0.5694369174E+00
  0.2570463033E+00  0.1000000000E+01  0.3530110648E+00  0.3365579862E+00  0.1022238654E-17 -0.4708295177E+00  0.6319760828E+15  0.3550371971E+00  0.7620338550E-18 -0.4525058898E+00
  0.1429536967E+00  0.1000000000E+01  0.3530110648E+00  0.1149558211E+00  0.1535654441E-17 -0.4120000879E+00  0.6319760828E+15  0.1292403939E+00  0.1470021183E-17 -0.4041806301E+00
  0.4698893521E-01  0.1000000000E+01  0.3530110648E+00  0.2634605721E-01  0.4775367313E-18 -0.1152100644E+00  0.6319760828E+15  0.3150968829E-01  0.4625931411E-18 -0.1134825465E+00
  0.0000000000E+00  0.1000000000E+01  0.3530110648E+00 -0.1426887156E-01  0.5116052570E-20 -0.2169184267E-02  0.6319760828E+15 -0.1432356008E-01  0.5862458435E-20 -0.1180264834E-02
  0.4000000000E+00  0.1000000000E+01  0.4000000000E+00  0.6797754002E+00  0.4981969195E-17 -0.6982466054E+00  0.6319760828E+15  0.6955879188E+00  0.4988412935E-17 -0.6720681881E+00
  0.3530110648E+00  0.1000000000E+01  0.4000000000E+00  0.5575051516E+00  0.4272435248E-17 -0.7144034051E+00  0.6319760828E+15  0.5757780507E+00  0.4187254421E-17 -0.6890942569E+00
  0.2570463033E+00  0.1000000000E+01  0.4000000000E+00  0.3400816578E+00  0.1371731197E-17 -0.5728765721E+00  0.6319760828E+15  0.3627344687E+00  0.1483249851E-17 -0.5548316382E+00
  0.1429536967E+00  0.1000000000E+01  0.4000000000E+00  0.1255362359E+00  0.1759482364E-17 -0.4831389660E+00  0.6319760828E+15  0.1439875112E+00  0.1812216991E-17 -0.4765165818E+00
  0.4698893521E-01  0.1000000000E+01  0.4000000000E+00  0.2439676588E-01  0.4628551697E-18 -0.1440448187E+00  0.6319760828E+15  0.3060571336E-01  0.4568618832E-18 -0.1425252710E+00
  0.0000000000E+00  0.1000000000E+01  0.4000000000E+00 -0.6789722716E-02  0.8028483236E-20 -0.3658610403E-02  0.6319760828E+15 -0.7215405746E-02  0.7706709791E-20 -0.2524809451E-02
ZONE I=6, J=6, K=1, F=POINT
  0.8000000000E+00  0.1000000000E+01  0.0000000000E+00  0.1764707521E-01 -0.8330039007E-19 -0.1159613826E-01  0.6319760828E+15  0.1756510165E-01 -0.8660568168E-19 -0.1156500508E-01
  0.7530110648E+00  0.1000000000E+01  0.0000000000E+00  0.1740198633E-02  0.7337160258E-19  0.5993239284E-02  0.6319760828E+15  0.1806106809E-02  0.7036376039E-19  0.5978873226E-02
  0.6570463033E+00  0.1000000000E+01  0.0000000000E+00 -0.7269204977E-03  0.1666980834E-19  0.1405203332E-03  0.6319760828E+15 -0.8254463644E-03  0.1533011560E-19  0.1779474190E-03
  0.5429536967E+00  0.1000000000E+01  0.0000000000E+00  0.1174680761E-02  0.3356171453E-19  0.6736331619E-02  0.6319760828E+15  0.7266041153E-03  0.2103539389E-19  0.6840375324E-02
  0.4469889352E+00  0.1000000000E+01  0.0000000000E+00 -0.1171588961E-02 -0.1510977384E-19  0.5621714044E-03  0.6319760828E+15 -0.1875185031E-02 -0.4011996272E-19  0.5302491732E-03
  0.4000000000E+00  0.1000000000E+01  0.0000000000E+00  0.1541380819E-01  0.3225626783E-19  0.7391883621E-02  0.6319760828E+15  0.1471251872E-01  0.3249451246E-19  0.6993677751E-02
  0.8000000000E+00  0.1000000000E+01  0.4698893521E-01  0.3122981088E+00 -0.2463440591E-16  0.3102649154E-01  0.6319760828E+15  0.3110489629E+00 -0.2461583168E-16  0.2991275388E-01
  0.7530110648E+00  0.1000000000E+01  0.4698893521E-01  0.5085001974E+00 -0.2405947335E-16 -0.2781364405E-01  0.6319760828E+15  0.5075552308E+00 -0.2400676949E-16 -0.2752302129E-01
  0.6570463033E+00  0.1000000000E+01  0.4698893521E-01  0.2948399219E+00 -0.5035555611E-17  0.6066034872E-03  0.6319760828E+15  0.2936789523E+00 -0.5046672163E-17  0.3483529537E-02
  0.5429536967E+00  0.1000000000E+01  0.4698893521E-01  0.3297073857E+00  0.4166017047E-17  0.6254948737E-02  0.6319760828E+15  0.3288075404E+00  0.4153731173E-17  0.1089132591E-01
  0.4469889352E+00  0.1000000000E+01  0.4698893521E-01  0.2039549716E+00  0.3742318914E-17  0.1156813171E-01  0.6319760828E+15  0.2033249290E+00  0.3741369715E-17  0.1611571110E-01
  0.4000000000E+00  0.1000000000E+01  0.4698893521E-01  0.3090627888E+00  0.2567718418E-17 -0.3371118746E-01  0.6319760828E+15  0.3087525579E+00  0.2569508913E-17 -0.2998215121E-01
  0.8000000000E+00  0.1000000000E+01  0.1429536967E+00  0.9740971577E+00 -0.5599807386E-16 -0.3047676416E+00  0.6319760828E+15  0.9673622327E+00 -0.5616657806E-16 -0.3019857997E+00
  0.7530110648E+00  0.1000000000E+01  0.1429536967E+00  0.1279795963E+01 -0.3617993567E-16 -0.1600115765E+00  0.6319760828E+15  0.1272689087E+01 -0.3617493941E-16 -0.1532126034E+00
  0.6570463033E+00  0.1000000000E+01  0.1429536967E+00  0.8604795677E+00 -0.5421956445E-17 -0.1587288757E+00  0.6319760828E+15  0.8548588436E+00 -0.5182553852E-17 -0.1439264833E+00
  0.5429536967E+00  0.1000000000E+01  0.1429536967E+00  0.8081081528E+00  0.9029301392E-17 -0.2246379680E-01  0.6319760828E+15  0.8063203880E+00  0.8989127186E-17 -0.3145753024E-02
  0.4469889352E+00  0.1000000000E+01  0.1429536967E+00  0.5173493168E+00  0.8836437140E-17 -0.1115877677E+00  0.6319760828E+15  0.5187714503E+00  0.8741690869E-17 -0.9323763104E-01
  0.4000000000E+00  0.1000000000E+01  0.1429536967E+00  0.6405035400E+00  0.9959033736E-17 -0.9263420263E-01  0.6319760828E+15  0.6432536110E+00  0.9992470111E-17 -0.7621171741E-01
  0.8000000000E+00  0.1000000000E+01  0.2570463033E+00  0.1865544163E+01 -0.1661570265E-16 -0.8151378006E+00  0.6319760828E+15  0.1851146871E+01 -0.1664131090E-16 -0.8018904654E+00
  0.7530110648E+00  0.1000000000E+01  0.2570463033E+00  0.1765196769E+01 -0.1179768709E-16 -0.5613085462E+00  0.6319760828E+15  0.1748389158E+01 -0.1149458582E-16 -0.5453234815E+00
  0.6570463033E+00  0.1000000000E+01  0.2570463033E+00  0.1344779855E+01 -0.6101339165E-17 -0.5010973093E+00  0.6319760828E+15  0.1331012444E+01 -0.5723399408E-17 -0.4787160808E+00
  0.5429536967E+00  0.1000000000E+01  0.2570463033E+00  0.1044504580E+01  0.1489738528E-17 -0.2525068776E+00  0.6319760828E+15  0.1040822198E+01  0.1416383545E-17 -0.2244466454E+00
  0.4469889352E+00  0.1000000000E+01  0.2570463033E+00  0.7386612577E+00  0.2950202444E-17 -0.3664285928E+00  0.6319760828E+15  0.7440289915E+00  0.3303082632E-17 -0.3384642556E+00
  0.4000000000E+00  0.1000000000E+01  0.2570463033E+00  0.7004932322E+00  0.2726941876E-17 -0.3251571245E+00  0.6319760828E+15  0.7095916567E+00  0.2748144737E-17 -0.2993714627E+00
  0.8000000000E+00  0.1000000000E+01  0.3530110648E+00  0.1978491575E+01 -0.2546461259E-17 -0.1248663311E+01  0.6319760828E+15  0.1961817202E+01 -0.2556283652E-17 -0.1230583715E+01
  0.7530110648E+00  0.1000000000E+01  0.3530110648E+00  0.1915687827E+01  0.1964420191E-17 -0.1026620827E+01  0.6319760828E+15  0.1896620016E+01  0.9029131252E-18 -0.1008920281E+01
  0.6570463033E+00  0.1000000000E+01  0.3530110648E+00  0.1474436719E+01 -0.4093638551E-17 -0.8462130759E+00  0.6319760828E+15  0.1456028665E+01 -0.3722472476E-17 -0.8274137578E+00
  0.5429536967E+00  0.1000000000E+01  0.3530110648E+00  0.1124482686E+01 -0.4498647162E-17 -0.5517882662E+00  0.6319760828E+15  0.1117184615E+01 -0.4236410265E-17 -0.5273543909E+00
  0.4469889352E+00  0.1000000000E+01  0.3530110648E+00  0.7548749344E+00  0.2131099020E-17 -0.6043507989E+00  0.6319760828E+15  0.7621083783E+00  0.1913543500E-17 -0.5771960937E+00
  0.4000000000E+00  0.1000000000E+01  0.3530110648E+00  0.7323510975E+00  0.2856824404E-17 -0.5694441039E+00  0.6319760828E+15  0.7468992730E+00  0.2844391795E-17 -0.5434454848E+00
  0.8000000000E+00  0.1000000000E+01  0.4000000000E+00  0.2025419958E+01 -0.8731570513E-17 -0.1502988626E+01  0.6319760828E+15  0.2009023815E+01 -0.8718969988E-17 -0.1486858832E+01
  0.7530110648E+00  0.1000000000E+01  0.4000000000E+00  0.1840113674E+01 -0.4977746346E-17 -0.1221041743E+01  0.6319760828E+15  0.1821675575E+01 -0.5218706131E-17 -0.1205213097E+01
  0.6570463033E+00  0.1000000000E+01  0.4000000000E+00  0.1458101980E+01 -0.2078296328E-17 -0.1029639591E+01  0.6319760828E+15  0.1438252155E+01 -0.2042835901E-17 -0.1014186989E+01
  0.5429536967E+00  0.1000000000E+01  0.4000000000E+00  0.1096765395E+01  0.5696782103E-17 -0.7432889268E+00  0.6319760828E+15  0.1086861694E+01  0.5483736885E-17 -0.7221195060E+00
  0.4469889352E+00  0.1000000000E+01  0.4000000000E+00  0.8034183366E+00  0.5883658567E-17 -0.7526057470E+00  0.6319760828E+15  0.8104560925E+00  0.6012795815E-17 -0.7267993450E+00
  0.4000000000E+00  0.1000000000E+01  0.4000000000E+00  0.6916473468E+00  0.5003754470E-17 -0.6974789897E+00  0.6319760828E+15  0.7076988341E+00  0.5006250064E-17 -0.6713839612E+00
ZONE I=6, J=6, K=1, F=POINT
  0.1200000000E+01  0.1000000000E+01  0.0000000000E+00 -0.3202876130E-01  0.5778946959E-19  0.3667324342E-01  0.6319760828E+15 -0.3157422643E-01  0.5968468561E-19  0.3695711755E-01
  0.1153011065E+01  0.1000000000E+01  0.0000000000E+00 -0.5082041373E-02 -0.2223426256E-18 -0.9618506065E-02  0.6319760828E+15 -0.4949446195E-02 -0.2256810011E-18 -0.9477997203E-02
  0.1057046303E+01  0.1000000000E+01  0.0000000000E+00  0.2226934121E-02  0.2261676814E-19  0.5930895803E-02  0.6319760828E+15  0.2140493273E-02  0.2022312474E-19  0.5957381148E-02
  0.9429536967E+00  0.1000000000E+01  0.0000000000E+00 -0.1925419103E-02  0.4472381894E-20 -0.8288599431E-02  0.6319760828E+15 -0.2197242538E-02  0.1836875175E-20 -0.8256763214E-02
  0.8469889352E+00  0.1000000000E+01  0.0000000000E+00  0.3582450628E-02 -0.2121859727E-19  0.5349042782E-02  0.6319760828E+15  0.3236549876E-02 -0.2258409287E-19  0.5285720567E-02
  0.8000000000E+00  0.1000000000E+01  0.0000000000E+00 -0.2755444727E-01 -0.9301540082E-19 -0.1106912789E-01  0.6319760828E+15 -0.2782999183E-01 -0.9649221879E-19 -0.1104793605E-01
  0.1200000000E+01  0.1000000000E+01  0.4698893521E-01  0.2117331201E+01 -0.4202744497E-16 -0.2009116436E+00  0.6319760828E+15  0.2119119177E+01 -0.4208146345E-16 -0.2208965419E+00
  0.1153011065E+01  0.1000000000E+01  0.4698893521E-01  0.1439385874E+01 -0.2669554327E-16 -0.5317536742E-01  0.6319760828E+15  0.1437992907E+01 -0.2663250703E-16 -0.7057244173E-01
  0.1057046303E+01  0.1000000000E+01  0.4698893521E-01  0.1315619725E+01 -0.1313012343E-16 -0.8448659204E-01  0.6319760828E+15  0.1313739616E+01 -0.1316619023E-16 -0.9419364321E-01
  0.9429536967E+00  0.1000000000E+01  0.4698893521E-01  0.7262440825E+00 -0.1579314150E-16 -0.6494821230E-01  0.6319760828E+15  0.7254997265E+00 -0.1577321878E-16 -0.7037066825E-01
  0.8469889352E+00  0.1000000000E+01  0.4698893521E-01  0.6352533134E+00 -0.2879103524E-16 -0.5712474216E-01  0.6319760828E+15  0.6338340164E+00 -0.2872589801E-16 -0.5958670627E-01
  0.8000000000E+00  0.1000000000E+01  0.4698893521E-01  0.2511729031E+00 -0.2393488497E-16  0.3306502486E-01  0.6319760828E+15  0.2501493263E+00 -0.2392378994E-16  0.3190553234E-01
  0.1200000000E+01  0.1000000000E+01  0.1429536967E+00  0.4820744944E+01 -0.5915456572E-16 -0.5917716681E+00  0.6319760828E+15  0.4824083361E+01 -0.5913995200E-16 -0.6114031673E+00
  0.1153011065E+01  0.1000000000E+01  0.1429536967E+00  0.3388666078E+01 -0.6988759017E-16 -0.7933225120E+00  0.6319760828E+15  0.3380400480E+01 -0.7027692234E-16 -0.8110744507E+00
  0.1057046303E+01  0.1000000000E+01  0.1429536967E+00  0.3040423391E+01 -0.4155133379E-16 -0.5708596083E+00  0.6319760828E+15  0.3031822986E+01 -0.4154520982E-16 -0.5830314504E+00
  0.9429536967E+00  0.1000000000E+01  0.1429536967E+00  0.1831239169E+01 -0.3708080601E-16 -0.6708141705E+00  0.6319760828E+15  0.1826680005E+01 -0.3707390356E-16 -0.6761460231E+00
  0.8469889352E+00  0.1000000000E+01  0.1429536967E+00  0.1586373648E+01 -0.5273170994E-16 -0.3245737520E+00  0.6319760828E+15  0.1580079706E+01 -0.5258883285E-16 -0.3248099412E+00
  0.8000000000E+00  0.1000000000E+01  0.1429536967E+00  0.8902190173E+00 -0.5821946566E-16 -0.3063792105E+00  0.6319760828E+15  0.8855280492E+00 -0.5839294919E-16 -0.3035568001E+00
  0.1200000000E+01  0.1000000000E+01  0.2570463033E+00  0.4813754256E+01 -0.1052977836E-16 -0.1650082335E+01  0.6319760828E+15  0.4813579086E+01 -0.1045635523E-16 -0.1644846155E+01
  0.1153011065E+01  0.1000000000E+01  0.2570463033E+00  0.4310661545E+01 -0.4350686516E-16 -0.1884780967E+01  0.6319760828E+15  0.4302306414E+01 -0.4250179762E-16 -0.1882207277E+01
  0.1057046303E+01  0.1000000000E+01  0.2570463033E+00  0.3543509882E+01 -0.3807103722E-16 -0.1472725845E+01  0.6319760828E+15  0.3531116228E+01 -0.3809189079E-16 -0.1471174336E+01
  0.9429536967E+00  0.1000000000E+01  0.2570463033E+00  0.2661979204E+01 -0.3492649004E-16 -0.1515431974E+01  0.6319760828E+15  0.2651100266E+01 -0.3432836984E-16 -0.1509518468E+01
  0.8469889352E+00  0.1000000000E+01  0.2570463033E+00  0.2190912371E+01 -0.1873748496E-16 -0.8916525899E+00  0.6319760828E+15  0.2178665381E+01 -0.1900995511E-16 -0.8810159221E+00
  0.8000000000E+00  0.1000000000E+01  0.2570463033E+00  0.1827673921E+01 -0.1676607078E-16 -0.8175901838E+00  0.6319760828E+15  0.1813884695E+01 -0.1677127651E-16 -0.8040151012E+00
  0.1200000000E+01  0.1000000000E+01  0.3530110648E+00  0.4876038473E+01  0.2566528399E-16 -0.2732093707E+01  0.6319760828E+15  0.4882733031E+01  0.2569556476E-16 -0.2720338293E+01
  0.1153011065E+01  0.1000000000E+01  0.3530110648E+00  0.4191049291E+01  0.5391103279E-17 -0.2634882749E+01  0.6319760828E+15  0.4186119460E+01  0.5483331201E-17 -0.2624665158E+01
  0.1057046303E+01  0.1000000000E+01  0.3530110648E+00  0.3554578082E+01 -0.1562724458E-16 -0.2235087759E+01  0.6319760828E+15  0.3541439350E+01 -0.1574899306E-16 -0.2224910428E+01
  0.9429536967E+00  0.1000000000E+01  0.3530110648E+00  0.2724746769E+01 -0.2053068190E-16 -0.2028796790E+01  0.6319760828E+15  0.2710025200E+01 -0.2012977202E-16 -0.2016566877E+01
  0.8469889352E+00  0.1000000000E+01  0.3530110648E+00  0.2356072617E+01 -0.7354958510E-17 -0.1435794084E+01  0.6319760828E+15  0.2339357593E+01 -0.7974800282E-17 -0.1419178717E+01
  0.8000000000E+00  0.1000000000E+01  0.3530110648E+00  0.1931235451E+01 -0.2482688415E-17 -0.1248894258E+01  0.6319760828E+15  0.1915372566E+01 -0.2485070700E-17 -0.1230872614E+01
  0.1200000000E+01  0.1000000000E+01  0.4000000000E+00  0.4496929709E+01  0.3048863993E-16 -0.3000481529E+01  0.6319760828E+15  0.4505033207E+01  0.3050781456E-16 -0.2992340953E+01
  0.1153011065E+01  0.1000000000E+01  0.4000000000E+00  0.4176217060E+01  0.2071570824E-16 -0.3086749621E+01  0.6319760828E+15  0.4171075431E+01  0.2047685020E-16 -0.3078671929E+01
  0.1057046303E+01  0.1000000000E+01  0.4000000000E+00  0.3412161092E+01 -0.4401132292E-17 -0.2556363247E+01  0.6319760828E+15  0.3398982253E+01 -0.4561596215E-17 -0.2549019868E+01
  0.9429536967E+00  0.1000000000E+01  0.4000000000E+00  0.2718511450E+01 -0.1938083876E-16 -0.2324781769E+01  0.6319760828E+15  0.2702048705E+01 -0.1916128699E-16 -0.2315582134E+01
  0.8469889352E+00  0.1000000000E+01  0.4000000000E+00  0.2248589223E+01 -0.1450154800E-16 -0.1653525725E+01  0.6319760828E+15  0.2229933280E+01 -0.1458417627E-16 -0.1639074915E+01
  0.8000000000E+00  0.1000000000E+01  0.4000000000E+00  0.2020613591E+01 -0.8707059413E-17 -0.1506174598E+01  0.6319760828E+15  0.2004253184E+01 -0.8693046006E-17 -0.1489728372E+01
ZONE I=6, J=6, K=1, F=POINT
  0.1600000000E+01  0.1000000000E+01  0.0000000000E+00  0.1292330717E+00 -0.9000936536E-18 -0.7181612260E-01  0.6319760828E+15  0.1299650211E+00 -0.1020461844E-17 -0.7145012504E-01
  0.1553011065E+01  0.1000000000E+01  0.0000000000E+00  0.9529818299E-02 -0.1270476041E-17  0.4534187833E-01  0.6319760828E+15  0.1046433456E-01 -0.1345896436E-17  0.4524763479E-01
  0.1457046303E+01  0.1000000000E+01  0.0000000000E+00 -0.7942820659E-02 -0.6994857132E-19 -0.3353297487E-02  0.6319760828E+15 -0.7063812318E-02 -0.1097562178E-18 -0.3294931902E-02
  0.1342953697E+01  0.1000000000E+01  0.0000000000E+00  0.4747012856E-02  0.3718715633E-18  0.2977630763E-01  0.6319760828E+15  0.5813393355E-02  0.4317394912E-18  0.2971800894E-01
  0.1246988935E+01  0.1000000000E+01  0.0000000000E+00 -0.8035703196E-02  0.1304640935E-18 -0.8257456009E-02  0.6319760828E+15 -0.7202447945E-02  0.1328320516E-18 -0.8155677906E-02
  0.1200000000E+01  0.1000000000E+01  0.0000000000E+00  0.5726317223E-01  0.6175682973E-19  0.3672375458E-01  0.6319760828E+15  0.5791840071E-01  0.6391561425E-19  0.3701352320E-01
  0.1600000000E+01  0.1000000000E+01  0.4698893521E-01  0.2979707600E+01 -0.8925360315E-16  0.2157858707E+00  0.6319760828E+15  0.2979989870E+01 -0.8925837501E-16  0.2050850734E+00
  0.1553011065E+01  0.1000000000E+01  0.4698893521E-01  0.3438900573E+01 -0.4483489594E-16 -0.2885136537E+00  0.6319760828E+15  0.3440975831E+01 -0.4475671419E-16 -0.2991284886E+00
  0.1457046303E+01  0.1000000000E+01  0.4698893521E-01  0.2433044596E+01 -0.5005961196E-17 -0.9675833661E-01  0.6319760828E+15  0.2436116061E+01 -0.5104595639E-17 -0.1063565531E+00
  0.1342953697E+01  0.1000000000E+01  0.4698893521E-01  0.2409405124E+01  0.2882703405E-16 -0.6568474417E-01  0.6319760828E+15  0.2414115381E+01  0.2885843181E-16 -0.7853841798E-01
  0.1246988935E+01  0.1000000000E+01  0.4698893521E-01  0.1843932021E+01 -0.6841761938E-17 -0.2730018114E-01  0.6319760828E+15  0.1847884151E+01 -0.6652834119E-17 -0.4611591540E-01
  0.1200000000E+01  0.1000000000E+01  0.4698893521E-01  0.2215296558E+01 -0.4623049777E-16 -0.2065778830E+00  0.6319760828E+15  0.2215192364E+01 -0.4625878502E-16 -0.2261971598E+00
  0.1600000000E+01  0.1000000000E+01  0.1429536967E+00  0.6175130640E+01 -0.2675543700E-15 -0.1911665550E+01  0.6319760828E+15  0.6161538984E+01 -0.2674264911E-15 -0.1922915341E+01
  0.1553011065E+01  0.1000000000E+01  0.1429536967E+00  0.7812389982E+01 -0.1457731536E-15 -0.1061597187E+01  0.6319760828E+15  0.7813289472E+01 -0.1458771576E-15 -0.1073127502E+01
  0.1457046303E+01  0.1000000000E+01  0.1429536967E+00  0.5671905312E+01  0.3160207659E-16 -0.9999813900E+00  0.6319760828E+15  0.5676816269E+01  0.3170524734E-16 -0.1012517484E+01
  0.1342953697E+01  0.1000000000E+01  0.1429536967E+00  0.5592017916E+01  0.1011125227E-15 -0.2227324383E+00  0.6319760828E+15  0.5602263949E+01  0.1014910121E-15 -0.2390789604E+00
  0.1246988935E+01  0.1000000000E+01  0.1429536967E+00  0.4249138261E+01  0.2672576877E-16 -0.7253046837E+00  0.6319760828E+15  0.4257870917E+01  0.2631197167E-16 -0.7444405440E+00
  0.1200000000E+01  0.1000000000E+01  0.1429536967E+00  0.4985607009E+01 -0.6330925785E-16 -0.5865116571E+00  0.6319760828E+15  0.4979755656E+01 -0.6320483435E-16 -0.6067625418E+00
  0.1600000000E+01  0.1000000000E+01  0.2570463033E+00  0.1080067533E+02  0.9167202669E-16 -0.3951092240E+01  0.6319760828E+15  0.1081051250E+02  0.9162492544E-16 -0.3948032006E+01
  0.1553011065E+01  0.1000000000E+01  0.2570463033E+00  0.9649600121E+01  0.1159730486E-15 -0.2816380952E+01  0.6319760828E+15  0.9655140770E+01  0.1159760484E-15 -0.2809095318E+01
  0.1457046303E+01  0.1000000000E+01  0.2570463033E+00  0.8171383244E+01  0.1825721574E-15 -0.2562865122E+01  0.6319760828E+15  0.8179068509E+01  0.1828900936E-15 -0.2557587449E+01
  0.1342953697E+01  0.1000000000E+01  0.2570463033E+00  0.6488321951E+01  0.1318856607E-15 -0.1261045355E+01  0.6319760828E+15  0.6501836313E+01  0.1326229965E-15 -0.1256431325E+01
  0.1246988935E+01  0.1000000000E+01  0.2570463033E+00  0.5259675170E+01  0.3971636725E-16 -0.1899075455E+01  0.6319760828E+15  0.5268640891E+01  0.4023134699E-16 -0.1893284741E+01
  0.1200000000E+01  0.1000000000E+01  0.2570463033E+00  0.4853728037E+01 -0.1082099783E-16 -0.1641092884E+01  0.6319760828E+15  0.4853397627E+01 -0.1072372887E-16 -0.1638286393E+01
  0.1600000000E+01  0.1000000000E+01  0.3530110648E+00  0.9037033115E+01  0.1817633463E-15 -0.4650303645E+01  0.6319760828E+15  0.9035947119E+01  0.1817058834E-15 -0.4637076759E+01
  0.1553011065E+01  0.1000000000E+01  0.3530110648E+00  0.9126521035E+01  0.1912878427E-15 -0.4491371193E+01  0.6319760828E+15  0.9131854413E+01  0.1913126999E-15 -0.4477855723E+01
  0.1457046303E+01  0.1000000000E+01  0.3530110648E+00  0.7784372978E+01  0.1902512835E-15 -0.3856246925E+01  0.6319760828E+15  0.7792931380E+01  0.1904685569E-15 -0.3842564515E+01
  0.1342953697E+01  0.1000000000E+01  0.3530110648E+00  0.6442258202E+01  0.1458320559E-15 -0.2800009650E+01  0.6319760828E+15  0.6454996334E+01  0.1460893187E-15 -0.2784335106E+01
  0.1246988935E+01  0.1000000000E+01  0.3530110648E+00  0.5042957821E+01  0.5945724993E-16 -0.2824987347E+01  0.6319760828E+15  0.5054861869E+01  0.5905729185E-16 -0.2809920745E+01
  0.1200000000E+01  0.1000000000E+01  0.3530110648E+00  0.4952715706E+01  0.2576185303E-16 -0.2732688948E+01  0.6319760828E+15  0.4955953861E+01  0.2577475045E-16 -0.2720552370E+01
  0.1600000000E+01  0.1000000000E+01  0.4000000000E+00  0.9112191461E+01  0.1797412698E-15 -0.5468892460E+01  0.6319760828E+15  0.9112635366E+01  0.1796731997E-15 -0.5471546046E+01
  0.1553011065E+01  0.1000000000E+01  0.4000000000E+00  0.8342689107E+01  0.2008764138E-15 -0.4603709923E+01  0.6319760828E+15  0.8348819980E+01  0.2009179145E-15 -0.4603563257E+01
  0.1457046303E+01  0.1000000000E+01  0.4000000000E+00  0.7567472851E+01  0.1804124523E-15 -0.4450399020E+01  0.6319760828E+15  0.7574361109E+01  0.1804507689E-15 -0.4446172009E+01
  0.1342953697E+01  0.1000000000E+01  0.4000000000E+00  0.6078972614E+01  0.1520422954E-15 -0.3209893342E+01  0.6319760828E+15  0.6091894698E+01  0.1527244873E-15 -0.3203416459E+01
  0.1246988935E+01  0.1000000000E+01  0.4000000000E+00  0.5050226080E+01  0.5852556274E-16 -0.3365877936E+01  0.6319760828E+15  0.5062858906E+01  0.5835566852E-16 -0.3356339328E+01
  0.1200000000E+01  0.1000000000E+01  0.4000000000E+00  0.4471255153E+01  0.3074378248E-16 -0.2989043748E+01  0.6319760828E+15  0.4480961297E+01  0.3075226184E-16 -0.2983208394E+01
ZONE I=6, J=6, K=1, F=POINT
  0.2000000000E+01  0.1000000000E+01  0.0000000000E+00  0.2402244816E+01  0.7361236745E-19  0.2123391182E+02  0.6319760827E+15  0.2430210312E+01  0.9431939886E-19  0.2215509216E+02
  0.1953011065E+01  0.1000000000E+01  0.0000000000E+00  0.1290044580E+01 -0.3733492482E-16 -0.1375363707E+00  0.6319760828E+15  0.1294920830E+01 -0.3608907517E-16 -0.1506272053E+00
  0.1857046303E+01  0.1000000000E+01  0.0000000000E+00 -0.3085879902E+00 -0.1892078752E-16  0.1518543835E+00  0.6319760828E+15 -0.3081751212E+00 -0.1934898254E-16  0.1504693719E+00
  0.1742953697E+01  0.1000000000E+01  0.0000000000E+00  0.1327377900E+00  0.2222822270E-18 -0.3754074261E-01  0.6319760828E+15  0.1343786149E+00  0.1184947980E-18 -0.3718620602E-01
  0.1646988935E+01  0.1000000000E+01  0.0000000000E+00 -0.1287777262E+00  0.3421687264E-18  0.6069118779E-01  0.6319760828E+15 -0.1273690251E+00  0.3041374471E-18  0.5983602881E-01
  0.1600000000E+01  0.1000000000E+01  0.0000000000E+00  0.8785578021E-01 -0.9783435060E-18 -0.8398668946E-01  0.6319760828E+15  0.8822966436E-01 -0.1101046847E-17 -0.8225564356E-01
  0.2000000000E+01  0.1000000000E+01  0.4698893521E-01 -0.1204227648E-01  0.7445724938E-18  0.4848133214E+02  0.6319760828E+15 -0.5461331198E-01  0.6851184508E-18  0.4865713008E+02
  0.1953011065E+01  0.1000000000E+01  0.4698893521E-01  0.1096202569E+02  0.1378758340E-15  0.1467444583E+01  0.6319760828E+15  0.1095028748E+02  0.1366566871E-15  0.1485122281E+01
  0.1857046303E+01  0.1000000000E+01  0.4698893521E-01  0.1168143776E+02  0.2933922233E-15 -0.1882179335E+01  0.6319760828E+15  0.1168432695E+02  0.2937326782E-15 -0.1880315397E+01
  0.1742953697E+01  0.1000000000E+01  0.4698893521E-01  0.5804560287E+01 -0.3556148136E-16 -0.6542433750E+00  0.6319760828E+15  0.5810578696E+01 -0.3523375153E-16 -0.6604731499E+00
  0.1646988935E+01  0.1000000000E+01  0.4698893521E-01  0.4459701081E+01 -0.1214106247E-15 -0.6400733062E+00  0.6319760828E+15  0.4460672455E+01 -0.1216496382E-15 -0.6485626012E+00
  0.1600000000E+01  0.1000000000E+01  0.4698893521E-01  0.2816780388E+01 -0.8642408769E-16  0.2015429871E+00  0.6319760828E+15  0.2825991226E+01 -0.8623594894E-16  0.1855583827E+00
  0.2000000000E+01  0.1000000000E+01  0.1429536967E+00 -0.2815345221E+00  0.2724261812E-17  0.5050159437E+02  0.6319760828E+15 -0.2570800802E+00  0.2748984706E-17  0.5043934585E+02
  0.1953011065E+01  0.1000000000E+01  0.1429536967E+00  0.2798194990E+01 -0.5140523441E-15  0.1643371842E+02  0.6319760828E+15  0.2785223494E+01 -0.5138558566E-15  0.1647075157E+02
  0.1857046303E+01  0.1000000000E+01  0.1429536967E+00  0.1275762106E+02 -0.2560904184E-15 -0.3582289011E+01  0.6319760828E+15  0.1275850476E+02 -0.2563944457E-15 -0.3576062914E+01
  0.1742953697E+01  0.1000000000E+01  0.1429536967E+00  0.9973962465E+01 -0.1485201180E-16 -0.4149758671E+01  0.6319760828E+15  0.9984502677E+01 -0.1436754395E-16 -0.4155793849E+01
  0.1646988935E+01  0.1000000000E+01  0.1429536967E+00  0.9212214245E+01 -0.1587243077E-15 -0.2170335475E+01  0.6319760828E+15  0.9219541850E+01 -0.1583815124E-15 -0.2178666089E+01
  0.1600000000E+01  0.1000000000E+01  0.1429536967E+00  0.5805333875E+01 -0.2840323619E-15 -0.1911499212E+01  0.6319760828E+15  0.5831027451E+01 -0.2842981403E-15 -0.1927506883E+01
  0.2000000000E+01  0.1000000000E+01  0.2570463033E+00  0.1914340793E-01  0.1100640063E-17  0.4987160814E+02  0.6319760828E+15  0.1830345177E-01  0.1057477970E-17  0.4987737281E+02