TITLE = "Generated from ../MESH/Convergence_0000000000.hmesh and Convergence_0000008600.hsol"
VARIABLES = "x","y","z","veloT_x","veloT_y","veloT_z","slr_4","velo_x","velo_y","velo_z"
ZONE I=6, J=6, K=1, F=POINT
  0.4000000000E+00  0.1000000000E+01  0.0000000000E+00  0.5563324741E-01  0.5002341600E-19  0.7986100380E-02  0.8651616713E+14  0.3202839324E-01  0.6005711713E-19  0.7284140807E-02
  0.3530110648E+00  0.1000000000E+01  0.0000000000E+00  0.6786654898E-01 -0.8187358064E-20 -0.7885070074E-03  0.8651616713E+14  0.3990924685E-01  0.1524553629E-19 -0.9735594633E-03
  0.2570463033E+00  0.1000000000E+01  0.0000000000E+00  0.5445533665E-01 -0.6591595159E-20  0.8414030997E-03  0.8651616713E+14  0.3009771135E-01  0.4108982987E-20  0.1069631229E-02
  0.1429536967E+00  0.1000000000E+01  0.0000000000E+00  0.4807129484E-01 -0.2922732503E-20 -0.1136778718E-02  0.8651616713E+14  0.2623524841E-01 -0.4260849225E-21 -0.4934742208E-03
  0.4698893521E-01  0.1000000000E+01  0.0000000000E+00  0.3892419308E-01 -0.8813127447E-21 -0.2595004288E-02  0.8651616713E+14  0.2414077304E-01  0.2681220483E-20 -0.2413899965E-02
  0.0000000000E+00  0.1000000000E+01  0.0000000000E+00 -0.3575750627E-02 -0.2884796283E-22 -0.2041214089E-02  0.8651616713E+14 -0.3877675561E-02 -0.5152399062E-22 -0.1471433224E-02
  0.4000000000E+00  0.1000000000E+01  0.4698893521E-01  0.4341888135E+00  0.2615263802E-17  0.1941393189E+00  0.8651616713E+14  0.4849154769E+00  0.2332770589E-17 -0.1125083493E+00
  0.3530110648E+00  0.1000000000E+01  0.4698893521E-01  0.2840283929E+00  0.1346930739E-17  0.1857725264E+00  0.8651616713E+14  0.3178636882E+00  0.1340133287E-17 -0.9720749716E-01
  0.2570463033E+00  0.1000000000E+01  0.4698893521E-01  0.2193417917E+00  0.1416453190E-17  0.1067544512E+00  0.8651616713E+14  0.2338083724E+00  0.1072944341E-17 -0.1133044411E+00
  0.1429536967E+00  0.1000000000E+01  0.4698893521E-01  0.1164848651E+00  0.7787517629E-18  0.1962900084E-01  0.8651616713E+14  0.1241279285E+00  0.7086541604E-18 -0.1228268782E+00
  0.4698893521E-01  0.1000000000E+01  0.4698893521E-01  0.7731767256E-01  0.1972321936E-18 -0.5599986264E-01  0.8651616713E+14  0.8523424708E-01  0.2502156323E-18 -0.1112089102E+00
  0.0000000000E+00  0.1000000000E+01  0.4698893521E-01 -0.1415677979E-01 -0.5865082848E-21 -0.3350899564E-01  0.8651616713E+14 -0.1397013244E-01 -0.6627368019E-21 -0.2022393580E-01
  0.4000000000E+00  0.1000000000E+01  0.1429536967E+00  0.9096394963E+00  0.1425280662E-16  0.1911125971E+00  0.8651616714E+14  0.9217981371E+00  0.1429239271E-16 -0.2032486977E+00
  0.3530110648E+00  0.1000000000E+01  0.1429536967E+00  0.6228903246E+00  0.4807918108E-17  0.1243583338E+00  0.8651616713E+14  0.5762627872E+00  0.7285342772E-17 -0.2406180139E+00
  0.2570463033E+00  0.1000000000E+01  0.1429536967E+00  0.4720784145E+00  0.3435600092E-17  0.9780762501E-01  0.8651616713E+14  0.4144476946E+00  0.3237168453E-17 -0.1897690575E+00
  0.1429536967E+00  0.1000000000E+01  0.1429536967E+00  0.2738809272E+00  0.1401395300E-17 -0.4445320069E-01  0.8651616713E+14  0.1775556300E+00  0.1291142881E-17 -0.2307211824E+00
  0.4698893521E-01  0.1000000000E+01  0.1429536967E+00  0.1498437771E+00  0.5860052053E-18 -0.5787466648E-01  0.8651616713E+14  0.4948986318E-01  0.8803281293E-18 -0.1152680379E+00
  0.0000000000E+00  0.1000000000E+01  0.1429536967E+00 -0.2284885131E-01 -0.7415852876E-20 -0.4200395999E-01  0.8651616713E+14 -0.2335742008E-01 -0.7436529013E-20 -0.2330685383E-01
  0.4000000000E+00  0.1000000000E+01  0.2570463033E+00  0.1179345343E+01  0.5626256749E-17 -0.2043945846E+00  0.8651616714E+14  0.1210750532E+01  0.5633625403E-17 -0.4889194506E+00
  0.3530110648E+00  0.1000000000E+01  0.2570463033E+00  0.9634000460E+00  0.7751432888E-17 -0.2775053480E+00  0.8651616714E+14  0.8726214269E+00  0.3448445631E-17 -0.5774923408E+00
  0.2570463033E+00  0.1000000000E+01  0.2570463033E+00  0.7062325893E+00  0.2993969504E-17 -0.1827924437E+00  0.8651616713E+14  0.5716724719E+00  0.3064027274E-17 -0.4477966369E+00
  0.1429536967E+00  0.1000000000E+01  0.2570463033E+00  0.4914611146E+00  0.2024120713E-17 -0.2435887765E+00  0.8651616713E+14  0.2571076688E+00  0.2082112652E-17 -0.3921436408E+00
  0.4698893521E-01  0.1000000000E+01  0.2570463033E+00  0.2685091526E+00  0.6264201693E-18 -0.9916019804E-01  0.8651616713E+14  0.4237543684E-01  0.3514624168E-18 -0.1212315293E+00
  0.0000000000E+00  0.1000000000E+01  0.2570463033E+00 -0.1483080320E-01  0.6165995403E-20 -0.3033509532E-01  0.8651616713E+14 -0.1530797250E-01  0.3198244493E-20 -0.9410698915E-02
  0.4000000000E+00  0.1000000000E+01  0.3530110648E+00  0.1503409357E+01  0.4413194723E-17 -0.5506666700E+00  0.8651616714E+14  0.1577145158E+01  0.4448697564E-17 -0.1007772213E+01
  0.3530110648E+00  0.1000000000E+01  0.3530110648E+00  0.1147770496E+01  0.4349805166E-17 -0.6072322020E+00  0.8651616714E+14  0.1045235819E+01  0.4202631410E-17 -0.1034058141E+01
  0.2570463033E+00  0.1000000000E+01  0.3530110648E+00  0.8266170356E+00 -0.4025810049E-19 -0.4648997393E+00  0.8651616714E+14  0.6053067348E+00  0.4734178488E-17 -0.7970775140E+00
  0.1429536967E+00  0.1000000000E+01  0.3530110648E+00  0.6259971259E+00  0.1878649748E-17 -0.4324000882E+00  0.8651616713E+14  0.2433739124E+00  0.3207407254E-17 -0.5903125637E+00
  0.4698893521E-01  0.1000000000E+01  0.3530110648E+00  0.3378403121E+00  0.1193476277E-17 -0.1823214344E+00  0.8651616713E+14  0.5975826132E-02  0.1185692963E-17 -0.1829286383E+00
  0.0000000000E+00  0.1000000000E+01  0.3530110648E+00 -0.1617330341E-01  0.1085287623E-19 -0.2622484443E-01  0.8651616713E+14 -0.1659765290E-01  0.2449704607E-20  0.1149678964E-02
  0.4000000000E+00  0.1000000000E+01  0.4000000000E+00  0.1622515753E+01  0.6016881367E-17 -0.7407945482E+00  0.8651616714E+14  0.1609475465E+01  0.6203785214E-17 -0.1419344790E+01
  0.3530110648E+00  0.1000000000E+01  0.4000000000E+00  0.1263262869E+01  0.4284316999E-17 -0.7226755534E+00  0.8651616714E+14  0.1085704601E+01  0.5469364046E-17 -0.1254517835E+01
  0.2570463033E+00  0.1000000000E+01  0.4000000000E+00  0.8921915477E+00  0.3260775508E-17 -0.5664682160E+00  0.8651616714E+14  0.6032555919E+00  0.1641995476E-17 -0.9018026998E+00
  0.1429536967E+00  0.1000000000E+01  0.4000000000E+00  0.7021788246E+00  0.2373557307E-17 -0.5001569781E+00  0.8651616713E+14  0.2345696425E+00  0.1059670002E-17 -0.6445028554E+00
  0.4698893521E-01  0.1000000000E+01  0.4000000000E+00  0.3666869448E+00  0.6969407889E-18 -0.2012379393E+00  0.8651616713E+14 -0.2431215329E-01  0.5906930305E-18 -0.1828979615E+00
  0.0000000000E+00  0.1000000000E+01  0.4000000000E+00 -0.8269882447E-02  0.1694695914E-20 -0.1660929808E-01  0.8651616713E+14 -0.8592877764E-02  0.4322823851E-20  0.1044474037E-01
ZONE I=6, J=6, K=1, F=POINT
  0.8000000000E+00  0.1000000000E+01  0.0000000000E+00  0.1512165758E+00 -0.6636602811E-19 -0.1296179246E-01  0.8651616714E+14  0.1196136235E+00 -0.7887911810E-20 -0.1336528134E-01
  0.7530110648E+00  0.1000000000E+01  0.0000000000E+00  0.1310235130E+00  0.2970639179E-17  0.4504092823E-02  0.8651616714E+14  0.9656211528E-01  0.2339602875E-17  0.4236181416E-02
  0.6570463033E+00  0.1000000000E+01  0.0000000000E+00  0.1144619669E+00  0.1528415806E-17 -0.2246775728E-02  0.8651616714E+14  0.7885601958E-01  0.1033298440E-17 -0.2348745694E-02
  0.5429536967E+00  0.1000000000E+01  0.0000000000E+00  0.9446957041E-01  0.2472086686E-17  0.3823182937E-02  0.8651616713E+14  0.6458336782E-01  0.1676405141E-17  0.4077696882E-02
  0.4469889352E+00  0.1000000000E+01  0.0000000000E+00  0.7453550103E-01  0.2302222164E-17 -0.1386933768E-02  0.8651616713E+14  0.5003702137E-01  0.1562195501E-17 -0.1434799371E-02
  0.4000000000E+00  0.1000000000E+01  0.0000000000E+00  0.8402785533E-01  0.5236423828E-19  0.7647412891E-02  0.8651616713E+14  0.5972459972E-01  0.6299293986E-19  0.6953777059E-02
  0.8000000000E+00  0.1000000000E+01  0.4698893521E-01  0.6502042983E+00 -0.2475570240E-16  0.3753154582E+00  0.8651616714E+14  0.8204345348E+00 -0.2690931047E-16  0.3133180552E-01
  0.7530110648E+00  0.1000000000E+01  0.4698893521E-01  0.8294369104E+00 -0.3344210564E-16  0.3224292850E+00  0.8651616714E+14  0.9725582123E+00 -0.4104023068E-16 -0.3064341053E-01
  0.6570463033E+00  0.1000000000E+01  0.4698893521E-01  0.5645855165E+00 -0.9132439134E-18  0.3703132636E+00  0.8651616714E+14  0.6723694299E+00 -0.1693562108E-18  0.2903569984E-01
  0.5429536967E+00  0.1000000000E+01  0.4698893521E-01  0.5483340081E+00  0.7966845472E-17  0.3677319112E+00  0.8651616714E+14  0.6363941312E+00  0.9261477513E-17  0.4055386814E-01
  0.4469889352E+00  0.1000000000E+01  0.4698893521E-01  0.3890928807E+00  0.3247675080E-17  0.2947459447E+00  0.8651616713E+14  0.4581314773E+00  0.3107292180E-17 -0.2335474179E-01
  0.4000000000E+00  0.1000000000E+01  0.4698893521E-01  0.4770221295E+00  0.2360309850E-17  0.1933852057E+00  0.8651616713E+14  0.5275418280E+00  0.2065172166E-17 -0.1132842932E+00
  0.8000000000E+00  0.1000000000E+01  0.1429536967E+00  0.1626005328E+01 -0.4578774525E-16  0.6209868780E-01  0.8651616714E+14  0.1852160018E+01 -0.3982175368E-16 -0.2926509038E+00
  0.7530110648E+00  0.1000000000E+01  0.1429536967E+00  0.1892615437E+01 -0.3557095147E-16  0.2104153562E+00  0.8651616714E+14  0.2058532552E+01 -0.3422074265E-16 -0.1669877671E+00
  0.6570463033E+00  0.1000000000E+01  0.1429536967E+00  0.1368507090E+01 -0.9069956692E-17  0.1834281148E+00  0.8651616714E+14  0.1475173135E+01 -0.1358676545E-16 -0.2118260653E+00
  0.5429536967E+00  0.1000000000E+01  0.1429536967E+00  0.1216251475E+01  0.1755469976E-16  0.2766869228E+00  0.8651616714E+14  0.1302688570E+01  0.1975778170E-16 -0.1216178330E+00
  0.4469889352E+00  0.1000000000E+01  0.1429536967E+00  0.8651240407E+00  0.7452672729E-17  0.1798110157E+00  0.8651616714E+14  0.9163751578E+00  0.9092397766E-17 -0.2220033916E+00
  0.4000000000E+00  0.1000000000E+01  0.1429536967E+00  0.9624309123E+00  0.1501001252E-16  0.1918008256E+00  0.8651616714E+14  0.9734387204E+00  0.1508644766E-16 -0.2026469427E+00
  0.8000000000E+00  0.1000000000E+01  0.2570463033E+00  0.2931114296E+01 -0.9762313736E-17 -0.6655463663E+00  0.8651616715E+14  0.3209331905E+01 -0.8949049877E-17 -0.9719250096E+00
  0.7530110648E+00  0.1000000000E+01  0.2570463033E+00  0.2771457309E+01 -0.6697218617E-18 -0.4154323931E+00  0.8651616715E+14  0.2958500849E+01 -0.6043124538E-17 -0.7271063790E+00
  0.6570463033E+00  0.1000000000E+01  0.2570463033E+00  0.2179982291E+01 -0.7690568949E-17 -0.3221016591E+00  0.8651616715E+14  0.2249988523E+01 -0.9521860933E-17 -0.5806083972E+00
  0.5429536967E+00  0.1000000000E+01  0.2570463033E+00  0.1687542593E+01  0.9029394061E-17 -0.1679243814E-01  0.8651616714E+14  0.1778920557E+01  0.1055720441E-16 -0.2079793112E+00
  0.4469889352E+00  0.1000000000E+01  0.2570463033E+00  0.1279291357E+01  0.1004056922E-16 -0.1954802164E+00  0.8651616714E+14  0.1388498242E+01  0.6792653489E-17 -0.4381795167E+00
  0.4000000000E+00  0.1000000000E+01  0.2570463033E+00  0.1211305410E+01  0.5687773642E-17 -0.2036343352E+00  0.8651616714E+14  0.1241650080E+01  0.5708104254E-17 -0.4882243902E+00
  0.8000000000E+00  0.1000000000E+01  0.3530110648E+00  0.3377050132E+01  0.7603795172E-18 -0.1231770675E+01  0.8651616715E+14  0.3709946743E+01  0.7305626664E-18 -0.1811432892E+01
  0.7530110648E+00  0.1000000000E+01  0.3530110648E+00  0.3230965840E+01  0.1754325226E-16 -0.1005651843E+01  0.8651616715E+14  0.3410443657E+01  0.2710953023E-16 -0.1619502157E+01
  0.6570463033E+00  0.1000000000E+01  0.3530110648E+00  0.2393058429E+01 -0.1349960338E-16 -0.6417303501E+00  0.8651616715E+14  0.2395587904E+01 -0.4312303864E-17 -0.1283827678E+01
  0.5429536967E+00  0.1000000000E+01  0.3530110648E+00  0.1998878622E+01 -0.2787178952E-16 -0.6850325547E-01  0.8651616715E+14  0.2058342659E+01 -0.2590595745E-16 -0.6951512697E+00
  0.4469889352E+00  0.1000000000E+01  0.3530110648E+00  0.1764354858E+01  0.1371021335E-17 -0.4107993035E+00  0.8651616715E+14  0.1901479412E+01  0.6291644030E-17 -0.9210117715E+00
  0.4000000000E+00  0.1000000000E+01  0.3530110648E+00  0.1535050595E+01  0.4380321077E-17 -0.5500149920E+00  0.8651616714E+14  0.1606769490E+01  0.4339977650E-17 -0.1007171988E+01
  0.8000000000E+00  0.1000000000E+01  0.4000000000E+00  0.3523447478E+01 -0.8143807043E-17 -0.1657311714E+01  0.8651616716E+14  0.3943989535E+01 -0.8227545882E-17 -0.2363228857E+01
  0.7530110648E+00  0.1000000000E+01  0.4000000000E+00  0.3282456442E+01 -0.5184406257E-17 -0.1368280640E+01  0.8651616716E+14  0.3521680872E+01 -0.9289863134E-18 -0.2183944091E+01
  0.6570463033E+00  0.1000000000E+01  0.4000000000E+00  0.2315284901E+01  0.2803477885E-17 -0.9642411874E+00  0.8651616716E+14  0.2397171516E+01 -0.1809325581E-17 -0.2083284711E+01
  0.5429536967E+00  0.1000000000E+01  0.4000000000E+00  0.2079225004E+01  0.2387999379E-16 -0.2832067465E+00  0.8651616716E+14  0.2093546113E+01  0.1157855942E-16 -0.1602512395E+01
  0.4469889352E+00  0.1000000000E+01  0.4000000000E+00  0.2164217723E+01  0.2485014932E-16 -0.6423920223E+00  0.8651616715E+14  0.2136900825E+01  0.2929993799E-16 -0.1566651526E+01
  0.4000000000E+00  0.1000000000E+01  0.4000000000E+00  0.1630927646E+01  0.5991795405E-17 -0.7389162139E+00  0.8651616714E+14  0.1616331280E+01  0.6118964868E-17 -0.1417601942E+01
ZONE I=6, J=6, K=1, F=POINT
  0.1200000000E+01  0.1000000000E+01  0.0000000000E+00  0.1177388375E+00  0.7517043539E-19  0.3760964402E-01  0.8651616715E+14  0.1192091138E+00  0.1313798250E-18  0.3539637936E-01
  0.1153011065E+01  0.1000000000E+01  0.0000000000E+00  0.1466050557E+00  0.6574259402E-17 -0.9467486972E-02  0.8651616714E+14  0.1430103032E+00  0.6848842795E-17 -0.1081923613E-01
  0.1057046303E+01  0.1000000000E+01  0.0000000000E+00  0.1526754830E+00  0.3918098367E-17  0.5624668834E-02  0.8651616714E+14  0.1404789460E+00  0.3585437821E-17  0.4427307467E-02
  0.9429536967E+00  0.1000000000E+01  0.0000000000E+00  0.1425947467E+00  0.2610207596E-19 -0.9029001481E-02  0.8651616714E+14  0.1212579794E+00  0.1421584586E-18 -0.9906797135E-02
  0.8469889352E+00  0.1000000000E+01  0.0000000000E+00  0.1409713320E+00 -0.3588877338E-19  0.4184899025E-02  0.8651616714E+14  0.1126675819E+00 -0.3696093877E-20  0.3636895845E-02
  0.8000000000E+00  0.1000000000E+01  0.0000000000E+00  0.1057350962E+00 -0.6889717864E-19 -0.1244498826E-01  0.8651616714E+14  0.7421753904E-01 -0.7220043712E-20 -0.1284130654E-01
  0.1200000000E+01  0.1000000000E+01  0.4698893521E-01  0.2565335370E+01 -0.4997144184E-16  0.4167918703E-02  0.8651616715E+14  0.2872135486E+01 -0.6335229435E-16  0.4960047369E-01
  0.1153011065E+01  0.1000000000E+01  0.4698893521E-01  0.1871032083E+01 -0.3148788184E-16  0.1660043736E+00  0.8651616715E+14  0.2178955717E+01 -0.4099823098E-16  0.1643063693E+00
  0.1057046303E+01  0.1000000000E+01  0.4698893521E-01  0.1733493912E+01 -0.9198014263E-17  0.1807225074E+00  0.8651616714E+14  0.2011182189E+01 -0.6081695832E-17  0.6665076160E-01
  0.9429536967E+00  0.1000000000E+01  0.4698893521E-01  0.1108581981E+01 -0.1861454737E-16  0.2395475990E+00  0.8651616714E+14  0.1345186625E+01 -0.2521436506E-16  0.1579370511E-01
  0.8469889352E+00  0.1000000000E+01  0.4698893521E-01  0.9854818298E+00 -0.3521806424E-16  0.2770845128E+00  0.8651616714E+14  0.1186430816E+01 -0.4382846728E-16 -0.3567385762E-01
  0.8000000000E+00  0.1000000000E+01  0.4698893521E-01  0.5884270256E+00 -0.2406950440E-16  0.3772588722E+00  0.8651616714E+14  0.7593201956E+00 -0.2630948653E-16  0.3329742964E-01
  0.1200000000E+01  0.1000000000E+01  0.1429536967E+00  0.5842123249E+01 -0.6515994084E-16 -0.3509377464E+00  0.8651616715E+14  0.6247153746E+01 -0.7555641939E-16 -0.2423265296E+00
  0.1153011065E+01  0.1000000000E+01  0.1429536967E+00  0.4357796595E+01 -0.6539037230E-16 -0.5494880200E+00  0.8651616715E+14  0.4799774939E+01 -0.4125648737E-16 -0.4964734198E+00
  0.1057046303E+01  0.1000000000E+01  0.1429536967E+00  0.3931873242E+01 -0.3720864701E-16 -0.2991822214E+00  0.8651616715E+14  0.4338080672E+01 -0.3813755384E-16 -0.3779476573E+00
  0.9429536967E+00  0.1000000000E+01  0.1429536967E+00  0.2619122307E+01 -0.3171763381E-16 -0.3481030210E+00  0.8651616715E+14  0.2966830234E+01 -0.3208708291E-16 -0.5687371378E+00
  0.8469889352E+00  0.1000000000E+01  0.1429536967E+00  0.2282955177E+01 -0.5328385671E-16  0.3499839114E-01  0.8651616715E+14  0.2580060058E+01 -0.5839478590E-16 -0.2838587224E+00
  0.8000000000E+00  0.1000000000E+01  0.1429536967E+00  0.1540925797E+01 -0.4801142541E-16  0.6014662566E-01  0.8651616714E+14  0.1769388494E+01 -0.4187906303E-16 -0.2943477832E+00
  0.1200000000E+01  0.1000000000E+01  0.2570463033E+00  0.6520286729E+01 -0.1710771262E-16 -0.1484291217E+01  0.8651616715E+14  0.7024562698E+01 -0.1722061114E-16 -0.1399693713E+01
  0.1153011065E+01  0.1000000000E+01  0.2570463033E+00  0.5954621100E+01 -0.4670817585E-16 -0.1751090208E+01  0.8651616715E+14  0.6525961144E+01 -0.1065212649E-15 -0.1713938224E+01
  0.1057046303E+01  0.1000000000E+01  0.2570463033E+00  0.5038017565E+01 -0.3340920747E-16 -0.1390664720E+01  0.8651616715E+14  0.5594516128E+01 -0.3257181624E-16 -0.1477348323E+01
  0.9429536967E+00  0.1000000000E+01  0.2570463033E+00  0.3959390250E+01 -0.3360396428E-16 -0.1432774516E+01  0.8651616715E+14  0.4420294182E+01 -0.5805981571E-16 -0.1662436316E+01
  0.8469889352E+00  0.1000000000E+01  0.2570463033E+00  0.3327768090E+01 -0.1634720464E-17 -0.7511254510E+00  0.8651616715E+14  0.3688619325E+01  0.6190249937E-17 -0.1042999840E+01
  0.8000000000E+00  0.1000000000E+01  0.2570463033E+00  0.2892808743E+01 -0.9832657105E-17 -0.6683953582E+00  0.8651616715E+14  0.3172041194E+01 -0.9344296924E-17 -0.9742907535E+00
  0.1200000000E+01  0.1000000000E+01  0.3530110648E+00  0.7142325817E+01  0.1208395338E-16 -0.2616716995E+01  0.8651616716E+14  0.7742320412E+01  0.1175579348E-16 -0.2576330576E+01
  0.1153011065E+01  0.1000000000E+01  0.3530110648E+00  0.6363637157E+01 -0.3444543085E-17 -0.2598299323E+01  0.8651616716E+14  0.7056109244E+01 -0.1253598555E-16 -0.2615796818E+01
  0.1057046303E+01  0.1000000000E+01  0.3530110648E+00  0.5549427986E+01 -0.2371174953E-16 -0.2307525591E+01  0.8651616716E+14  0.6259536501E+01 -0.2215153346E-16 -0.2477452880E+01
  0.9429536967E+00  0.1000000000E+01  0.3530110648E+00  0.4417050302E+01 -0.2410233736E-16 -0.2132258131E+01  0.8651616715E+14  0.4999514028E+01 -0.4018322795E-16 -0.2504195490E+01
  0.8469889352E+00  0.1000000000E+01  0.3530110648E+00  0.3798653853E+01 -0.6141094913E-17 -0.1455203559E+01  0.8651616715E+14  0.4225521009E+01  0.1045980162E-16 -0.1975145699E+01
  0.8000000000E+00  0.1000000000E+01  0.3530110648E+00  0.3328941143E+01  0.9585981042E-18 -0.1232104258E+01  0.8651616715E+14  0.3663533978E+01  0.7425160700E-18 -0.1811772510E+01
  0.1200000000E+01  0.1000000000E+01  0.4000000000E+00  0.7015501532E+01  0.1109282178E-16 -0.2996198227E+01  0.8651616716E+14  0.7666682736E+01  0.1066567029E-16 -0.2940135754E+01
  0.1153011065E+01  0.1000000000E+01  0.4000000000E+00  0.6582040392E+01  0.1783376156E-17 -0.3194157166E+01  0.8651616716E+14  0.7333790977E+01  0.1512327215E-16 -0.3190368956E+01
  0.1057046303E+01  0.1000000000E+01  0.4000000000E+00  0.5612500217E+01 -0.1428060905E-16 -0.2811543225E+01  0.8651616716E+14  0.6401383884E+01 -0.6618091507E-17 -0.2926499520E+01
  0.9429536967E+00  0.1000000000E+01  0.4000000000E+00  0.4570363905E+01 -0.2254841035E-16 -0.2597313601E+01  0.8651616716E+14  0.5246420639E+01 -0.3767196385E-16 -0.2927844019E+01
  0.8469889352E+00  0.1000000000E+01  0.4000000000E+00  0.3802995835E+01 -0.1479545067E-16 -0.1866224788E+01  0.8651616716E+14  0.4323591072E+01 -0.9264611549E-17 -0.2443424530E+01
  0.8000000000E+00  0.1000000000E+01  0.4000000000E+00  0.3520113545E+01 -0.8082099148E-17 -0.1660378522E+01  0.8651616716E+14  0.3941870399E+01 -0.8262751777E-17 -0.2365742937E+01
ZONE I=6, J=6, K=1, F=POINT
  0.1600000000E+01  0.1000000000E+01  0.0000000000E+00  0.2643810926E+00 -0.9990954798E-18 -0.7321810344E-01  0.8651616715E+14  0.3171944030E+00 -0.9305030644E-18 -0.7872805932E-01
  0.1553011065E+01  0.1000000000E+01  0.0000000000E+00  0.1439267960E+00 -0.7637862518E-17  0.4506730670E-01  0.8651616715E+14  0.1934944255E+00 -0.1025300033E-16  0.4391840685E-01
  0.1457046303E+01  0.1000000000E+01  0.0000000000E+00  0.1299664154E+00 -0.3369107800E-17 -0.2511918597E-02  0.8651616715E+14  0.1656375950E+00 -0.4095396993E-17 -0.4276309539E-02
  0.1342953697E+01  0.1000000000E+01  0.0000000000E+00  0.1475935075E+00  0.8272585105E-17  0.3017046210E-01  0.8651616715E+14  0.1678618334E+00  0.9439804872E-17  0.2845739967E-01
  0.1246988935E+01  0.1000000000E+01  0.0000000000E+00  0.1381285254E+00  0.9427171022E-18 -0.7582454350E-02  0.8651616715E+14  0.1470920916E+00  0.6317669100E-18 -0.9258529547E-02
  0.1200000000E+01  0.1000000000E+01  0.0000000000E+00  0.2064565523E+00  0.1058107740E-18  0.3759805758E-01  0.8651616715E+14  0.2088292977E+00  0.1783887412E-18  0.3540733694E-01
  0.1600000000E+01  0.1000000000E+01  0.4698893521E-01  0.3028555284E+01 -0.9064936636E-16  0.5689909349E+00  0.8651616715E+14  0.3421883211E+01 -0.9960163955E-16  0.4541429625E+00
  0.1553011065E+01  0.1000000000E+01  0.4698893521E-01  0.3581809324E+01 -0.4445540401E-16  0.5277058438E-01  0.8651616715E+14  0.3932879928E+01 -0.3383566484E-16 -0.2283788736E-01
  0.1457046303E+01  0.1000000000E+01  0.4698893521E-01  0.2721872189E+01 -0.8652822665E-17  0.2016051301E+00  0.8651616715E+14  0.3066130370E+01 -0.1895445635E-16  0.2373905234E+00
  0.1342953697E+01  0.1000000000E+01  0.4698893521E-01  0.2825721329E+01  0.2771303323E-16  0.1832541722E+00  0.8651616715E+14  0.3155034537E+01  0.3064702854E-16  0.2285373955E+00
  0.1246988935E+01  0.1000000000E+01  0.4698893521E-01  0.2285997561E+01 -0.2977142114E-17  0.1803971727E+00  0.8651616715E+14  0.2582109985E+01  0.9279252929E-17  0.2342732057E+00
  0.1200000000E+01  0.1000000000E+01  0.4698893521E-01  0.2663534312E+01 -0.5418588500E-16 -0.1393695565E-02  0.8651616715E+14  0.2969178653E+01 -0.6770433809E-16  0.4427115947E-01
  0.1600000000E+01  0.1000000000E+01  0.1429536967E+00  0.6522805771E+01 -0.2743748983E-15 -0.1359549218E+01  0.8651616715E+14  0.6944142734E+01 -0.2507440092E-15 -0.1109622038E+01
  0.1553011065E+01  0.1000000000E+01  0.1429536967E+00  0.8348040715E+01 -0.1552447260E-15 -0.5042436142E+00  0.8651616715E+14  0.8633243491E+01 -0.1660809320E-15 -0.2764370302E+00
  0.1457046303E+01  0.1000000000E+01  0.1429536967E+00  0.6514097235E+01  0.2854222391E-16 -0.5129521346E+00  0.8651616715E+14  0.6832095900E+01  0.4828710678E-16 -0.3100563716E+00
  0.1342953697E+01  0.1000000000E+01  0.1429536967E+00  0.6643500639E+01  0.9767516226E-16  0.1180070535E+00  0.8651616715E+14  0.6992609317E+01  0.1105133856E-15  0.2909351781E+00
  0.1246988935E+01  0.1000000000E+01  0.1429536967E+00  0.5318283613E+01  0.8547430712E-17 -0.4822232452E+00  0.8651616715E+14  0.5628296525E+01 -0.1516467160E-16 -0.3402368225E+00
  0.1200000000E+01  0.1000000000E+01  0.1429536967E+00  0.6011176079E+01 -0.6936958588E-16 -0.3449084974E+00  0.8651616715E+14  0.6403854050E+01 -0.7924588294E-16 -0.2373587285E+00
  0.1600000000E+01  0.1000000000E+01  0.2570463033E+00  0.1167946580E+02  0.8561320686E-16 -0.3083442394E+01  0.8651616716E+14  0.1220626322E+02  0.8712757217E-16 -0.2674662147E+01
  0.1553011065E+01  0.1000000000E+01  0.2570463033E+00  0.1077899194E+02  0.1099161122E-15 -0.1958930015E+01  0.8651616716E+14  0.1119976904E+02  0.1157960853E-15 -0.1597873637E+01
  0.1457046303E+01  0.1000000000E+01  0.2570463033E+00  0.9710866761E+01  0.1683469620E-15 -0.1844521763E+01  0.8651616716E+14  0.1010604703E+02  0.1908012366E-15 -0.1596457781E+01
  0.1342953697E+01  0.1000000000E+01  0.2570463033E+00  0.8270338449E+01  0.1206728561E-15 -0.8551359532E+00  0.8651616715E+14  0.8657846403E+01  0.1425760969E-15 -0.6586520402E+00
  0.1246988935E+01  0.1000000000E+01  0.2570463033E+00  0.7031065188E+01  0.3666050178E-16 -0.1696546620E+01  0.8651616715E+14  0.7433896621E+01  0.5830922201E-16 -0.1565080350E+01
  0.1200000000E+01  0.1000000000E+01  0.2570463033E+00  0.6559962391E+01 -0.1726836949E-16 -0.1474179825E+01  0.8651616715E+14  0.7064195282E+01 -0.1801113687E-16 -0.1392632385E+01
  0.1600000000E+01  0.1000000000E+01  0.3530110648E+00  0.1037929946E+02  0.1835524400E-15 -0.3218513413E+01  0.8651616716E+14  0.1096182199E+02  0.1818905163E-15 -0.2945863744E+01
  0.1553011065E+01  0.1000000000E+01  0.3530110648E+00  0.1074666070E+02  0.1821313021E-15 -0.3128818436E+01  0.8651616716E+14  0.1124428357E+02  0.1855388963E-15 -0.2879743131E+01
  0.1457046303E+01  0.1000000000E+01  0.3530110648E+00  0.9877462220E+01  0.1640048189E-15 -0.2803590305E+01  0.8651616716E+14  0.1032064544E+02  0.1875074320E-15 -0.2571891375E+01
  0.1342953697E+01  0.1000000000E+01  0.3530110648E+00  0.8801262381E+01  0.1184085068E-15 -0.2242725317E+01  0.8651616716E+14  0.9239707110E+01  0.1305307023E-15 -0.2065788596E+01
  0.1246988935E+01  0.1000000000E+01  0.3530110648E+00  0.7378137435E+01  0.3383730359E-16 -0.2610466569E+01  0.8651616716E+14  0.7876256844E+01  0.1797223825E-16 -0.2519637298E+01
  0.1200000000E+01  0.1000000000E+01  0.3530110648E+00  0.7221507162E+01  0.1223363874E-16 -0.2616821119E+01  0.8651616716E+14  0.7817421760E+01  0.1186348222E-16 -0.2576323252E+01
  0.1600000000E+01  0.1000000000E+01  0.4000000000E+00  0.1064896223E+02  0.1815093231E-15 -0.3800484958E+01  0.8651616716E+14  0.1128323003E+02  0.1809710650E-15 -0.3376511113E+01
  0.1553011065E+01  0.1000000000E+01  0.4000000000E+00  0.1018824179E+02  0.1922989624E-15 -0.3044361769E+01  0.8651616716E+14  0.1070526773E+02  0.1808082657E-15 -0.2662146439E+01
  0.1457046303E+01  0.1000000000E+01  0.4000000000E+00  0.9912949905E+01  0.1536225331E-15 -0.3309652089E+01  0.8651616716E+14  0.1036961826E+02  0.1518266886E-15 -0.2975383150E+01
  0.1342953697E+01  0.1000000000E+01  0.4000000000E+00  0.8690530348E+01  0.1265423215E-15 -0.2665709531E+01  0.8651616716E+14  0.9173618938E+01  0.1542295320E-15 -0.2424269701E+01
  0.1246988935E+01  0.1000000000E+01  0.4000000000E+00  0.7637311839E+01  0.2669625017E-16 -0.3223740352E+01  0.8651616716E+14  0.8189252752E+01  0.2172334737E-16 -0.3108091304E+01
  0.1200000000E+01  0.1000000000E+01  0.4000000000E+00  0.6990416691E+01  0.1138238021E-16 -0.2983528743E+01  0.8651616716E+14  0.7642588988E+01  0.1109561697E-16 -0.2930541104E+01
ZONE I=6, J=6, K=1, F=POINT
  0.2000000000E+01  0.1000000000E+01  0.0000000000E+00  0.2407935035E+01  0.1007747434E-18  0.2123690078E+02  0.8651616712E+14  0.2452265510E+01  0.1467806908E-18  0.2217695153E+02
  0.1953011065E+01  0.1000000000E+01  0.0000000000E+00  0.1392515198E+01 -0.3987697835E-16 -0.1351456573E+00  0.8651616715E+14  0.1495018747E+01 -0.4046258723E-16 -0.1270751778E+00
  0.1857046303E+01  0.1000000000E+01  0.0000000000E+00 -0.1742276026E+00 -0.1113060974E-16  0.1542870136E+00  0.8651616715E+14 -0.7128642599E-01 -0.6028346271E-17  0.1452863018E+00
  0.1742953697E+01  0.1000000000E+01  0.0000000000E+00  0.2669489126E+00  0.5560862228E-18 -0.3527885915E-01  0.8651616715E+14  0.3424614993E+00  0.7775203081E-18 -0.3455615672E-01
  0.1646988935E+01  0.1000000000E+01  0.0000000000E+00  0.2659606776E-01 -0.2334309050E-18  0.6043368041E-01  0.8651616715E+14  0.9757664436E-01 -0.3101705531E-18  0.5663850306E-01
  0.1600000000E+01  0.1000000000E+01  0.0000000000E+00  0.2202720928E+00 -0.1089582977E-17 -0.8533923614E-01  0.8651616715E+14  0.2695802905E+00 -0.1042627365E-17 -0.8948837918E-01
  0.2000000000E+01  0.1000000000E+01  0.4698893521E-01 -0.1143075339E-01  0.7128568443E-18  0.4858642512E+02  0.8651616715E+14 -0.3187476401E-01  0.7636024324E-18  0.4886033157E+02
  0.1953011065E+01  0.1000000000E+01  0.4698893521E-01  0.1084122126E+02  0.1329929857E-15  0.1372082271E+01  0.8651616715E+14  0.1134169067E+02  0.1366274750E-15  0.1876212416E+01
  0.1857046303E+01  0.1000000000E+01  0.4698893521E-01  0.1146226390E+02  0.2754971883E-15 -0.1905494252E+01  0.8651616715E+14  0.1205494511E+02  0.3175189513E-15 -0.1517353726E+01
  0.1742953697E+01  0.1000000000E+01  0.4698893521E-01  0.5602268289E+01 -0.4702303451E-16 -0.4485706865E+00  0.8651616715E+14  0.6132537467E+01 -0.4850199832E-16 -0.2559962476E+00
  0.1646988935E+01  0.1000000000E+01  0.4698893521E-01  0.4413576499E+01 -0.1244132852E-15 -0.3049173249E+00  0.8651616715E+14  0.4981006884E+01 -0.1543757091E-15 -0.3512313088E+00
  0.1600000000E+01  0.1000000000E+01  0.4698893521E-01  0.2864333727E+01 -0.8780874281E-16  0.5540940536E+00  0.8651616715E+14  0.3263359367E+01 -0.9634090436E-16  0.4345348601E+00
  0.2000000000E+01  0.1000000000E+01  0.1429536967E+00 -0.2788718216E+00  0.3072508495E-17  0.5064799001E+02  0.8651616715E+14 -0.2625335791E+00  0.2389682424E-17  0.5068717434E+02
  0.1953011065E+01  0.1000000000E+01  0.1429536967E+00  0.2655677963E+01 -0.5220104985E-15  0.1626458310E+02  0.8651616715E+14  0.3179305916E+01 -0.4732919041E-15  0.1687643155E+02
  0.1857046303E+01  0.1000000000E+01  0.1429536967E+00  0.1235412113E+02 -0.2550335754E-15 -0.3724013241E+01  0.8651616715E+14  0.1306274359E+02 -0.2975165770E-15 -0.3187766619E+01
  0.1742953697E+01  0.1000000000E+01  0.1429536967E+00  0.9670943642E+01 -0.6968431623E-16 -0.3862122458E+01  0.8651616715E+14  0.1040101940E+02  0.1206426863E-17 -0.3472075355E+01
  0.1646988935E+01  0.1000000000E+01  0.1429536967E+00  0.9322442101E+01 -0.1740388857E-15 -0.1662455656E+01  0.8651616715E+14  0.1006895700E+02 -0.1710416652E-15 -0.1375046567E+01
  0.1600000000E+01  0.1000000000E+01  0.1429536967E+00  0.6153912152E+01 -0.2913935550E-15 -0.1360754919E+01  0.8651616715E+14  0.6612584470E+01 -0.2676042873E-15 -0.1114373626E+01
  0.2000000000E+01  0.1000000000E+01  0.2570463033E+00  0.2228446873E-01  0.1151634654E-17  0.5002890969E+02  0.8651616715E+14  0.2091094377E-01  0.1228155733E-17  0.5010237829E+02