TITLE = "Generated from ../MESH/Convergence_0000000000.hmesh and Convergence_0000001700.hsol"
VARIABLES = "x","y","z","veloT_x","veloT_y","veloT_z","slr_4","velo_x","velo_y","velo_z"
ZONE I=6, J=6, K=1, F=POINT
  0.4000000000E+00  0.1000000000E+01  0.0000000000E+00 -0.1117569318E-01  0.2931640308E-19  0.6939872645E-02  0.6211357419E+15 -0.1092170378E-01  0.2937450468E-19  0.7422386588E-02
  0.3530110648E+00  0.1000000000E+01  0.0000000000E+00 -0.8543427880E-03  0.8054379090E-20 -0.4977844899E-03  0.6211357419E+15 -0.3803481120E-03  0.8848059805E-20 -0.4009224211E-03
  0.2570463033E+00  0.1000000000E+01  0.0000000000E+00  0.1988893783E-03  0.1214826662E-20  0.2139580185E-02  0.6211357419E+15  0.5865536748E-03  0.1407111640E-20  0.2117352495E-02
  0.1429536967E+00  0.1000000000E+01  0.0000000000E+00 -0.7758326065E-03  0.2201557976E-21 -0.1228386038E-02  0.6211357419E+15 -0.4861311801E-03  0.3246319414E-21 -0.1221725369E-02
  0.4698893521E-01  0.1000000000E+01  0.0000000000E+00  0.1848604092E-02 -0.2120104119E-20  0.1804232197E-02  0.6211357419E+15  0.2131017689E-02 -0.1993049026E-20  0.1766280370E-02
  0.0000000000E+00  0.1000000000E+01  0.0000000000E+00 -0.7482575952E-02  0.9102078238E-23  0.2009631063E-02  0.6211357419E+15 -0.7443040625E-02  0.9114010763E-23  0.1978781809E-02
  0.4000000000E+00  0.1000000000E+01  0.4698893521E-01  0.2570085598E+00  0.2602210123E-17 -0.3673822521E-01  0.6211357419E+15  0.2575742778E+00  0.2599581655E-17 -0.4786974487E-01
  0.3530110648E+00  0.1000000000E+01  0.4698893521E-01  0.1187695353E+00  0.2246188156E-17 -0.3628187440E-03  0.6211357419E+15  0.1198125474E+00  0.2247076815E-17 -0.9976927957E-02
  0.2570463033E+00  0.1000000000E+01  0.4698893521E-01  0.9541873515E-01  0.7050634850E-18 -0.1278875993E-01  0.6211357419E+15  0.9561232116E-01  0.6949958385E-18 -0.1959659539E-01
  0.1429536967E+00  0.1000000000E+01  0.4698893521E-01  0.5542319292E-02  0.7810644905E-19 -0.9035447120E-02  0.6211357419E+15  0.5579375938E-02  0.7632664594E-19 -0.1216055038E-01
  0.4698893521E-01  0.1000000000E+01  0.4698893521E-01 -0.1553004132E-02 -0.3002896793E-20 -0.8617411549E-02  0.6211357419E+15 -0.1095394045E-02 -0.1808948880E-20 -0.9696770141E-02
  0.0000000000E+00  0.1000000000E+01  0.4698893521E-01 -0.1811989620E-01  0.8808707289E-21  0.2399075847E-02  0.6211357419E+15 -0.1804270331E-01  0.8967516073E-21  0.2047310855E-02
  0.4000000000E+00  0.1000000000E+01  0.1429536967E+00  0.5383361130E+00  0.8616519371E-17 -0.8809599957E-01  0.6211357419E+15  0.5363129235E+00  0.8585880170E-17 -0.1077611232E+00
  0.3530110648E+00  0.1000000000E+01  0.1429536967E+00  0.2896345932E+00  0.4633277474E-17 -0.1259417922E+00  0.6211357419E+15  0.2875446403E+00  0.4760418330E-17 -0.1445548445E+00
  0.2570463033E+00  0.1000000000E+01  0.1429536967E+00  0.2132965113E+00  0.1343632835E-17 -0.7260838750E-01  0.6211357419E+15  0.2089888602E+00  0.1333528206E-17 -0.8756566538E-01
  0.1429536967E+00  0.1000000000E+01  0.1429536967E+00  0.3502935914E-01  0.2513566309E-18 -0.1006742230E+00  0.6211357419E+15  0.3000722299E-01  0.2471506911E-18 -0.1081526770E+00
  0.4698893521E-01  0.1000000000E+01  0.1429536967E+00 -0.5629193703E-02  0.3830225101E-20 -0.1000465398E-01  0.6211357419E+15 -0.7563110820E-02  0.1365978285E-19 -0.1195693288E-01
  0.0000000000E+00  0.1000000000E+01  0.1429536967E+00 -0.2132026791E-01 -0.2671060116E-21 -0.1270642503E-02  0.6211357419E+15 -0.2129439279E-01 -0.9102904903E-22 -0.1645514263E-02
  0.4000000000E+00  0.1000000000E+01  0.2570463033E+00  0.5556906668E+00  0.1100091817E-17 -0.2846487126E+00  0.6211357419E+15  0.5530021953E+00  0.1104520344E-17 -0.2985622807E+00
  0.3530110648E+00  0.1000000000E+01  0.2570463033E+00  0.4092897757E+00  0.5581885841E-18 -0.3343781342E+00  0.6211357419E+15  0.4063860822E+00  0.3578972624E-18 -0.3483642286E+00
  0.2570463033E+00  0.1000000000E+01  0.2570463033E+00  0.2726733271E+00  0.6673352546E-19 -0.2289108909E+00  0.6211357419E+15  0.2635905003E+00  0.7101692133E-19 -0.2421880874E+00
  0.1429536967E+00  0.1000000000E+01  0.2570463033E+00  0.8831019932E-01  0.3471938924E-18 -0.2478644620E+00  0.6211357419E+15  0.7512021502E-01  0.3506085811E-18 -0.2556404272E+00
  0.4698893521E-01  0.1000000000E+01  0.2570463033E+00  0.1221469319E-01  0.5924580501E-18 -0.4510562467E-01  0.6211357419E+15  0.5669576783E-02  0.5637615694E-18 -0.4736522682E-01
  0.0000000000E+00  0.1000000000E+01  0.2570463033E+00 -0.1422533441E-01 -0.3063579610E-20 -0.9284595689E-03  0.6211357419E+15 -0.1420312231E-01 -0.3069786036E-20 -0.1520017583E-02
  0.4000000000E+00  0.1000000000E+01  0.3530110648E+00  0.5486028449E+00  0.4239857789E-18 -0.4638443512E+00  0.6211357419E+15  0.5436129085E+00  0.4278926323E-18 -0.4764191409E+00
  0.3530110648E+00  0.1000000000E+01  0.3530110648E+00  0.4152411539E+00  0.1605183386E-18 -0.4906325394E+00  0.6211357419E+15  0.4115488878E+00  0.1589177897E-18 -0.5010521525E+00
  0.2570463033E+00  0.1000000000E+01  0.3530110648E+00  0.2860409767E+00 -0.7949297456E-18 -0.3857447896E+00  0.6211357419E+15  0.2752856523E+00 -0.6748550374E-18 -0.3940037681E+00
  0.1429536967E+00  0.1000000000E+01  0.3530110648E+00  0.9470523528E-01  0.3995092795E-18 -0.3647702640E+00  0.6211357419E+15  0.7689411295E-01  0.4452137474E-18 -0.3701936617E+00
  0.4698893521E-01  0.1000000000E+01  0.3530110648E+00  0.1625886464E-01  0.5760990326E-19 -0.1012357920E+00  0.6211357419E+15  0.6595003590E-02  0.7718522253E-19 -0.1034425872E+00
  0.0000000000E+00  0.1000000000E+01  0.3530110648E+00 -0.1422870716E-01  0.5256000439E-20 -0.1004883342E-02  0.6211357419E+15 -0.1427327010E-01  0.5074387089E-20 -0.1800521862E-02
  0.4000000000E+00  0.1000000000E+01  0.4000000000E+00  0.5175665871E+00  0.2085879184E-17 -0.5423644387E+00  0.6211357419E+15  0.5088512756E+00  0.2091982560E-17 -0.5612373215E+00
  0.3530110648E+00  0.1000000000E+01  0.4000000000E+00  0.4400306291E+00  0.1375218659E-17 -0.5635442278E+00  0.6211357419E+15  0.4335964486E+00  0.1400522583E-17 -0.5786403327E+00
  0.2570463033E+00  0.1000000000E+01  0.4000000000E+00  0.2906067031E+00 -0.8402892364E-18 -0.4506670511E+00  0.6211357419E+15  0.2784472460E+00 -0.8692989094E-18 -0.4592898767E+00
  0.1429536967E+00  0.1000000000E+01  0.4000000000E+00  0.1061115613E+00  0.3479783739E-18 -0.4193140705E+00  0.6211357419E+15  0.8695148000E-01  0.2932219453E-18 -0.4243558444E+00
  0.4698893521E-01  0.1000000000E+01  0.4000000000E+00  0.1374109508E-01 -0.6038835765E-19 -0.1279081150E+00  0.6211357419E+15  0.2984896925E-02 -0.5115969856E-19 -0.1301753930E+00
  0.0000000000E+00  0.1000000000E+01  0.4000000000E+00 -0.6495086716E-02  0.7732711983E-20 -0.2857626630E-02  0.6211357419E+15 -0.6615877804E-02  0.7525768138E-20 -0.3302292363E-02
ZONE I=6, J=6, K=1, F=POINT
  0.8000000000E+00  0.1000000000E+01  0.0000000000E+00  0.1766934148E-01 -0.7602584220E-19 -0.1201461766E-01  0.6211357419E+15  0.1817681869E-01 -0.7787038140E-19 -0.1128793938E-01
  0.7530110648E+00  0.1000000000E+01  0.0000000000E+00  0.1971896003E-02  0.8743497576E-19  0.5754913452E-02  0.6211357419E+15  0.2729855410E-02  0.1064879692E-18  0.5902344554E-02
  0.6570463033E+00  0.1000000000E+01  0.0000000000E+00 -0.4526246928E-03  0.1963938738E-19  0.1162064912E-03  0.6211357419E+15  0.2479136623E-03  0.3057290011E-19  0.8933782118E-04
  0.5429536967E+00  0.1000000000E+01  0.0000000000E+00  0.9887493609E-03  0.2845221700E-19  0.6661167774E-02  0.6211357419E+15  0.1462347552E-02  0.4367191545E-19  0.6617345369E-02
  0.4469889352E+00  0.1000000000E+01  0.0000000000E+00 -0.1763226573E-02 -0.3395529608E-19  0.4435488636E-03  0.6211357419E+15 -0.1364855534E-02 -0.2087780685E-19  0.5095738053E-03
  0.4000000000E+00  0.1000000000E+01  0.0000000000E+00  0.1489774613E-01  0.3295879995E-19  0.6613677088E-02  0.6211357419E+15  0.1522202166E-01  0.3305814854E-19  0.7118324249E-02
  0.8000000000E+00  0.1000000000E+01  0.4698893521E-01  0.3167375669E+00 -0.2612969846E-16  0.2221372563E-01  0.6211357419E+15  0.3190663260E+00 -0.2615143122E-16  0.6850203731E-02
  0.7530110648E+00  0.1000000000E+01  0.4698893521E-01  0.5142969112E+00 -0.2565976519E-16 -0.3696198804E-01  0.6211357419E+15  0.5171327212E+00 -0.2580271193E-16 -0.5312623799E-01
  0.6570463033E+00  0.1000000000E+01  0.4698893521E-01  0.3000771717E+00 -0.5615585062E-17 -0.5377170429E-02  0.6211357419E+15  0.3018791390E+00 -0.5617379124E-17 -0.2149301681E-01
  0.5429536967E+00  0.1000000000E+01  0.4698893521E-01  0.3268925863E+00  0.4302933647E-17  0.2399598425E-02  0.6211357419E+15  0.3278090343E+00  0.4310394065E-17 -0.1071527750E-01
  0.4469889352E+00  0.1000000000E+01  0.4698893521E-01  0.1943832769E+00  0.3645814757E-17  0.7457423072E-02  0.6211357419E+15  0.1950643224E+00  0.3651044593E-17 -0.3885765945E-02
  0.4000000000E+00  0.1000000000E+01  0.4698893521E-01  0.2983132425E+00  0.2365700804E-17 -0.3750600365E-01  0.6211357419E+15  0.2988457943E+00  0.2362983383E-17 -0.4862042916E-01
  0.8000000000E+00  0.1000000000E+01  0.1429536967E+00  0.8418906603E+00 -0.5633526017E-16 -0.2844077663E+00  0.6211357419E+15  0.8451884421E+00 -0.5622541749E-16 -0.3188253669E+00
  0.7530110648E+00  0.1000000000E+01  0.1429536967E+00  0.1166169554E+01 -0.3697416087E-16 -0.1496940435E+00  0.6211357419E+15  0.1168820953E+01 -0.3676872163E-16 -0.1836834344E+00
  0.6570463033E+00  0.1000000000E+01  0.1429536967E+00  0.7739589268E+00 -0.6880467417E-17 -0.1581263154E+00  0.6211357419E+15  0.7724337618E+00 -0.6834903469E-17 -0.1880890813E+00
  0.5429536967E+00  0.1000000000E+01  0.1429536967E+00  0.7407545189E+00  0.8837525119E-17 -0.2618343654E-01  0.6211357419E+15  0.7380101907E+00  0.8742635934E-17 -0.5006480206E-01
  0.4469889352E+00  0.1000000000E+01  0.1429536967E+00  0.4597614061E+00  0.8369443450E-17 -0.1092973287E+00  0.6211357419E+15  0.4591415556E+00  0.8475598976E-17 -0.1298949582E+00
  0.4000000000E+00  0.1000000000E+01  0.1429536967E+00  0.5891921441E+00  0.9325102555E-17 -0.8755241096E-01  0.6211357419E+15  0.5877826404E+00  0.9304855679E-17 -0.1072215449E+00
  0.8000000000E+00  0.1000000000E+01  0.2570463033E+00  0.1441301591E+01 -0.1513688417E-16 -0.6907710512E+00  0.6211357419E+15  0.1447212255E+01 -0.1513282283E-16 -0.7254686804E+00
  0.7530110648E+00  0.1000000000E+01  0.2570463033E+00  0.1389465240E+01 -0.1121367031E-16 -0.4643445745E+00  0.6211357419E+15  0.1388460658E+01 -0.1170418879E-16 -0.4987009708E+00
  0.6570463033E+00  0.1000000000E+01  0.2570463033E+00  0.1055502943E+01 -0.7158451981E-17 -0.4452945568E+00  0.6211357419E+15  0.1046577108E+01 -0.6897964070E-17 -0.4741026170E+00
  0.5429536967E+00  0.1000000000E+01  0.2570463033E+00  0.8428395961E+00  0.1700700659E-18 -0.2162989045E+00  0.6211357419E+15  0.8338959631E+00  0.2368061274E-19 -0.2370154689E+00
  0.4469889352E+00  0.1000000000E+01  0.2570463033E+00  0.5977424681E+00  0.1472866177E-17 -0.3276194620E+00  0.6211357419E+15  0.5933774154E+00  0.1280417029E-17 -0.3426518631E+00
  0.4000000000E+00  0.1000000000E+01  0.2570463033E+00  0.5873527607E+00  0.1131181591E-17 -0.2840216279E+00  0.6211357419E+15  0.5844333134E+00  0.1132801061E-17 -0.2979716020E+00
  0.8000000000E+00  0.1000000000E+01  0.3530110648E+00  0.1337271340E+01 -0.2676665603E-17 -0.9941101463E+00  0.6211357419E+15  0.1346463025E+01 -0.2703290996E-17 -0.1020541053E+01
  0.7530110648E+00  0.1000000000E+01  0.3530110648E+00  0.1341754789E+01  0.1638243379E-17 -0.8120661518E+00  0.6211357419E+15  0.1340875721E+01  0.1555887913E-17 -0.8408489450E+00
  0.6570463033E+00  0.1000000000E+01  0.3530110648E+00  0.1027063712E+01 -0.5099345216E-17 -0.6945460223E+00  0.6211357419E+15  0.1012944895E+01 -0.4181716366E-17 -0.7241930489E+00
  0.5429536967E+00  0.1000000000E+01  0.3530110648E+00  0.8212525374E+00 -0.6693635580E-17 -0.4363127333E+00  0.6211357419E+15  0.8048900661E+00 -0.5476532048E-17 -0.4585548749E+00
  0.4469889352E+00  0.1000000000E+01  0.3530110648E+00  0.5602820772E+00 -0.3347607966E-18 -0.4953296501E+00  0.6211357419E+15  0.5511738024E+00 -0.2192984131E-18 -0.5105272629E+00
  0.4000000000E+00  0.1000000000E+01  0.3530110648E+00  0.5819294811E+00  0.3934070695E-18 -0.4636593573E+00  0.6211357419E+15  0.5773738177E+00  0.3979687544E-18 -0.4762245515E+00
  0.8000000000E+00  0.1000000000E+01  0.4000000000E+00  0.1312377828E+01 -0.1160716764E-16 -0.1178397932E+01  0.6211357419E+15  0.1323762543E+01 -0.1160480782E-16 -0.1202496436E+01
  0.7530110648E+00  0.1000000000E+01  0.4000000000E+00  0.1198637459E+01 -0.7304335051E-17 -0.9370289675E+00  0.6211357419E+15  0.1201474919E+01 -0.7279284126E-17 -0.9655461476E+00
  0.6570463033E+00  0.1000000000E+01  0.4000000000E+00  0.9570790877E+00 -0.4287213560E-17 -0.8133033623E+00  0.6211357419E+15  0.9424912762E+00 -0.4545179879E-17 -0.8493804319E+00
  0.5429536967E+00  0.1000000000E+01  0.4000000000E+00  0.7580057681E+00  0.2489424038E-17 -0.5693129875E+00  0.6211357419E+15  0.7381430438E+00  0.1625335989E-17 -0.6008859180E+00
  0.4469889352E+00  0.1000000000E+01  0.4000000000E+00  0.5891072171E+00  0.3092785361E-17 -0.5898833966E+00  0.6211357419E+15  0.5766653795E+00  0.2956777528E-17 -0.6146446962E+00
  0.4000000000E+00  0.1000000000E+01  0.4000000000E+00  0.5311394645E+00  0.2102842625E-17 -0.5416231269E+00  0.6211357419E+15  0.5215186759E+00  0.2106237638E-17 -0.5604742073E+00
ZONE I=6, J=6, K=1, F=POINT
  0.1200000000E+01  0.1000000000E+01  0.0000000000E+00 -0.3179121634E-01  0.6367899394E-19  0.3712594997E-01  0.6211357419E+15 -0.3131794619E-01  0.6565932084E-19  0.3718731118E-01
  0.1153011065E+01  0.1000000000E+01  0.0000000000E+00 -0.5315982709E-02 -0.2134766607E-18 -0.9549338741E-02  0.6211357419E+15 -0.4666220252E-02 -0.1808715636E-18 -0.9524981206E-02
  0.1057046303E+01  0.1000000000E+01  0.0000000000E+00  0.2165822187E-02  0.2732010920E-19  0.5976115736E-02  0.6211357419E+15  0.2762397290E-02  0.4187142415E-19  0.5954994178E-02
  0.9429536967E+00  0.1000000000E+01  0.0000000000E+00 -0.1929912487E-02  0.1327201720E-19 -0.8246797091E-02  0.6211357419E+15 -0.1684127302E-02  0.1555066056E-19 -0.8255648795E-02
  0.8469889352E+00  0.1000000000E+01  0.0000000000E+00  0.3662885050E-02 -0.1266884937E-19  0.5228419936E-02  0.6211357419E+15  0.3820653982E-02 -0.1180818484E-19  0.5381750796E-02
  0.8000000000E+00  0.1000000000E+01  0.0000000000E+00 -0.2717023248E-01 -0.8561012850E-19 -0.1149319564E-01  0.6211357419E+15 -0.2688641862E-01 -0.8753717239E-19 -0.1078023639E-01
  0.1200000000E+01  0.1000000000E+01  0.4698893521E-01  0.1963529512E+01 -0.4108002757E-16 -0.2018168544E+00  0.6211357419E+15  0.1967294329E+01 -0.4122300059E-16 -0.1992250838E+00
  0.1153011065E+01  0.1000000000E+01  0.4698893521E-01  0.1314301451E+01 -0.2594795666E-16 -0.5266219342E-01  0.6211357419E+15  0.1317208736E+01 -0.2603894968E-16 -0.5163210224E-01
  0.1057046303E+01  0.1000000000E+01  0.4698893521E-01  0.1238879238E+01 -0.1196699565E-16 -0.8569880881E-01  0.6211357419E+15  0.1242255724E+01 -0.1193504753E-16 -0.8966795367E-01
  0.9429536967E+00  0.1000000000E+01  0.4698893521E-01  0.6997716874E+00 -0.1618662098E-16 -0.6725587353E-01  0.6211357419E+15  0.7024992965E+00 -0.1626671576E-16 -0.7878013364E-01
  0.8469889352E+00  0.1000000000E+01  0.4698893521E-01  0.6354006493E+00 -0.3037533940E-16 -0.6484953120E-01  0.6211357419E+15  0.6366064225E+00 -0.3041662804E-16 -0.7951732685E-01
  0.8000000000E+00  0.1000000000E+01  0.4698893521E-01  0.2565281082E+00 -0.2544224135E-16  0.2427111514E-01  0.6211357419E+15  0.2583110216E+00 -0.2546426723E-16  0.8870297508E-02
  0.1200000000E+01  0.1000000000E+01  0.1429536967E+00  0.4255149969E+01 -0.5717036712E-16 -0.5053117819E+00  0.6211357419E+15  0.4266042417E+01 -0.5735121760E-16 -0.5059110886E+00
  0.1153011065E+01  0.1000000000E+01  0.1429536967E+00  0.2889329122E+01 -0.6787745894E-16 -0.7051108374E+00  0.6211357419E+15  0.2898399710E+01 -0.6740512956E-16 -0.7082937966E+00
  0.1057046303E+01  0.1000000000E+01  0.1429536967E+00  0.2668206491E+01 -0.4037397106E-16 -0.4899938665E+00  0.6211357419E+15  0.2681127902E+01 -0.4042040377E-16 -0.5022819161E+00
  0.9429536967E+00  0.1000000000E+01  0.1429536967E+00  0.1595503258E+01 -0.3632419516E-16 -0.6076653113E+00  0.6211357419E+15  0.1606526347E+01 -0.3634379004E-16 -0.6326119823E+00
  0.8469889352E+00  0.1000000000E+01  0.1429536967E+00  0.1431760937E+01 -0.5276133609E-16 -0.2944056886E+00  0.6211357419E+15  0.1436442356E+01 -0.5271385898E-16 -0.3270032220E+00
  0.8000000000E+00  0.1000000000E+01  0.1429536967E+00  0.7587373847E+00 -0.5853639755E-16 -0.2859752216E+00  0.6211357419E+15  0.7636259644E+00 -0.5843658503E-16 -0.3203653063E+00
  0.1200000000E+01  0.1000000000E+01  0.2570463033E+00  0.3738765535E+01 -0.1500025358E-16 -0.1340528734E+01  0.6211357419E+15  0.3751460926E+01 -0.1494930264E-16 -0.1340918839E+01
  0.1153011065E+01  0.1000000000E+01  0.2570463033E+00  0.3318837299E+01 -0.5025465881E-16 -0.1583303580E+01  0.6211357419E+15  0.3336911288E+01 -0.5210542514E-16 -0.1587273695E+01
  0.1057046303E+01  0.1000000000E+01  0.2570463033E+00  0.2732147464E+01 -0.4181213913E-16 -0.1195621450E+01  0.6211357419E+15  0.2757670601E+01 -0.4177126657E-16 -0.1207956824E+01
  0.9429536967E+00  0.1000000000E+01  0.2570463033E+00  0.2049249564E+01 -0.3642971097E-16 -0.1293478797E+01  0.6211357419E+15  0.2072455868E+01 -0.3763796828E-16 -0.1316703424E+01
  0.8469889352E+00  0.1000000000E+01  0.2570463033E+00  0.1717079667E+01 -0.1737150722E-16 -0.7392616023E+00  0.6211357419E+15  0.1729904908E+01 -0.1739464512E-16 -0.7716943731E+00
  0.8000000000E+00  0.1000000000E+01  0.2570463033E+00  0.1403729365E+01 -0.1528781641E-16 -0.6930412219E+00  0.6211357419E+15  0.1410246672E+01 -0.1528690505E-16 -0.7275044709E+00
  0.1200000000E+01  0.1000000000E+01  0.3530110648E+00  0.3497224929E+01  0.1163029170E-16 -0.2203630627E+01  0.6211357419E+15  0.3515571512E+01  0.1166128285E-16 -0.2211284975E+01
  0.1153011065E+01  0.1000000000E+01  0.3530110648E+00  0.2905469887E+01 -0.8033442074E-17 -0.2120407860E+01  0.6211357419E+15  0.2929741364E+01 -0.8325885138E-17 -0.2129422600E+01
  0.1057046303E+01  0.1000000000E+01  0.3530110648E+00  0.2458089775E+01 -0.2394290015E-16 -0.1764719489E+01  0.6211357419E+15  0.2490731262E+01 -0.2380300920E-16 -0.1777537160E+01
  0.9429536967E+00  0.1000000000E+01  0.3530110648E+00  0.1842085801E+01 -0.2489269691E-16 -0.1642199609E+01  0.6211357419E+15  0.1873676945E+01 -0.2575766215E-16 -0.1661264888E+01
  0.8469889352E+00  0.1000000000E+01  0.3530110648E+00  0.1641911922E+01 -0.8241001538E-17 -0.1140784089E+01  0.6211357419E+15  0.1661467813E+01 -0.7491709937E-17 -0.1165268222E+01
  0.8000000000E+00  0.1000000000E+01  0.3530110648E+00  0.1290364110E+01 -0.2612534492E-17 -0.9943042188E+00  0.6211357419E+15  0.1300182164E+01 -0.2647338546E-17 -0.1020782312E+01
  0.1200000000E+01  0.1000000000E+01  0.4000000000E+00  0.3034331232E+01  0.1054605678E-16 -0.2374990749E+01  0.6211357419E+15  0.3052375147E+01  0.1057001026E-16 -0.2397820994E+01
  0.1153011065E+01  0.1000000000E+01  0.4000000000E+00  0.2805453031E+01  0.2921607670E-17 -0.2476928044E+01  0.6211357419E+15  0.2829875858E+01  0.3318208395E-17 -0.2499253727E+01
  0.1057046303E+01  0.1000000000E+01  0.4000000000E+00  0.2229306601E+01 -0.1598241885E-16 -0.1995124325E+01  0.6211357419E+15  0.2263513372E+01 -0.1584399247E-16 -0.2016099464E+01
  0.9429536967E+00  0.1000000000E+01  0.4000000000E+00  0.1747601963E+01 -0.2650863207E-16 -0.1855457411E+01  0.6211357419E+15  0.1780910685E+01 -0.2739795730E-16 -0.1878512258E+01
  0.8469889352E+00  0.1000000000E+01  0.4000000000E+00  0.1455354814E+01 -0.1825768581E-16 -0.1285408297E+01  0.6211357419E+15  0.1476490312E+01 -0.1797805505E-16 -0.1308662750E+01
  0.8000000000E+00  0.1000000000E+01  0.4000000000E+00  0.1306903431E+01 -0.1158534160E-16 -0.1181415310E+01  0.6211357419E+15  0.1318558839E+01 -0.1158776701E-16 -0.1205285227E+01
ZONE I=6, J=6, K=1, F=POINT
  0.1600000000E+01  0.1000000000E+01  0.0000000000E+00  0.1301228658E+00 -0.8624777189E-18 -0.7276257191E-01  0.6211357419E+15  0.1303002388E+00 -0.9871050736E-18 -0.7263274973E-01
  0.1553011065E+01  0.1000000000E+01  0.0000000000E+00  0.1010194661E-01 -0.1312965036E-17  0.4534156266E-01  0.6211357419E+15  0.1019632820E-01 -0.1351714563E-17  0.4521726982E-01
  0.1457046303E+01  0.1000000000E+01  0.0000000000E+00 -0.7494543137E-02 -0.7350343634E-19 -0.3365178222E-02  0.6211357419E+15 -0.7391021964E-02 -0.9480583015E-19 -0.3303858053E-02
  0.1342953697E+01  0.1000000000E+01  0.0000000000E+00  0.5509156207E-02  0.4203263228E-18  0.3003991129E-01  0.6211357419E+15  0.5739943103E-02  0.4354097892E-18  0.2997136319E-01
  0.1246988935E+01  0.1000000000E+01  0.0000000000E+00 -0.7268848130E-02  0.1248058395E-18 -0.8051402216E-02  0.6211357419E+15 -0.7178440991E-02  0.1253509504E-18 -0.8038151794E-02
  0.1200000000E+01  0.1000000000E+01  0.0000000000E+00  0.5803647621E-01  0.6775601902E-19  0.3718078013E-01  0.6211357419E+15  0.5842823613E-01  0.7011830037E-19  0.3725981885E-01
  0.1600000000E+01  0.1000000000E+01  0.4698893521E-01  0.2824529146E+01 -0.8927621496E-16  0.1619372013E+00  0.6211357419E+15  0.2825263013E+01 -0.8927835965E-16  0.1684483673E+00
  0.1553011065E+01  0.1000000000E+01  0.4698893521E-01  0.3229253039E+01 -0.4585683011E-16 -0.3340151627E+00  0.6211357419E+15  0.3231918433E+01 -0.4578005450E-16 -0.3292106279E+00
  0.1457046303E+01  0.1000000000E+01  0.4698893521E-01  0.2204257150E+01 -0.6153359022E-17 -0.1179814038E+00  0.6211357419E+15  0.2206598487E+01 -0.6210812285E-17 -0.1165874220E+00
  0.1342953697E+01  0.1000000000E+01  0.4698893521E-01  0.2190169534E+01  0.3091790870E-16 -0.7861462465E-01  0.6211357419E+15  0.2191776521E+01  0.3092967915E-16 -0.7543327442E-01
  0.1246988935E+01  0.1000000000E+01  0.4698893521E-01  0.1666741622E+01 -0.4584284067E-17 -0.2798738505E-01  0.6211357419E+15  0.1669141817E+01 -0.4483521961E-17 -0.2423156780E-01
  0.1200000000E+01  0.1000000000E+01  0.4698893521E-01  0.2061790197E+01 -0.4531166994E-16 -0.2074905012E+00  0.6211357419E+15  0.2063354114E+01 -0.4540947607E-16 -0.2045455698E+00
  0.1600000000E+01  0.1000000000E+01  0.1429536967E+00  0.5392396564E+01 -0.2677398949E-15 -0.2099580184E+01  0.6211357419E+15  0.5380901350E+01 -0.2675907599E-15 -0.2104603145E+01
  0.1553011065E+01  0.1000000000E+01  0.1429536967E+00  0.6973393521E+01 -0.1548723747E-15 -0.1180247823E+01  0.6211357419E+15  0.6979085392E+01 -0.1551302176E-15 -0.1185687263E+01
  0.1457046303E+01  0.1000000000E+01  0.1429536967E+00  0.4825545300E+01  0.3084164151E-16 -0.1014402657E+01  0.6211357419E+15  0.4828113357E+01  0.3077904294E-16 -0.1018272644E+01
  0.1342953697E+01  0.1000000000E+01  0.1429536967E+00  0.4834562773E+01  0.1067539729E-15 -0.1802642785E+00  0.6211357419E+15  0.4833747714E+01  0.1067196308E-15 -0.1799228463E+00
  0.1246988935E+01  0.1000000000E+01  0.1429536967E+00  0.3615093073E+01  0.2975275793E-16 -0.6341595859E+00  0.6211357419E+15  0.3620691354E+01  0.2947776666E-16 -0.6329734175E+00
  0.1200000000E+01  0.1000000000E+01  0.1429536967E+00  0.4419419158E+01 -0.6134576909E-16 -0.5004458553E+00  0.6211357419E+15  0.4421247482E+01 -0.6141048946E-16 -0.5015156286E+00
  0.1600000000E+01  0.1000000000E+01  0.2570463033E+00  0.9244347400E+01  0.6256021101E-16 -0.4267239578E+01  0.6211357419E+15  0.9253599695E+01  0.6252746320E-16 -0.4280424631E+01
  0.1553011065E+01  0.1000000000E+01  0.2570463033E+00  0.8063775514E+01  0.8625015473E-16 -0.2951227446E+01  0.6211357419E+15  0.8069298400E+01  0.8605346221E-16 -0.2959928761E+01
  0.1457046303E+01  0.1000000000E+01  0.2570463033E+00  0.6632637561E+01  0.1706052965E-15 -0.2471362359E+01  0.6211357419E+15  0.6631287882E+01  0.1703658867E-15 -0.2476296895E+01
  0.1342953697E+01  0.1000000000E+01  0.2570463033E+00  0.5138990096E+01  0.1330037776E-15 -0.1018253714E+01  0.6211357419E+15  0.5136919331E+01  0.1328203672E-15 -0.1020882684E+01
  0.1246988935E+01  0.1000000000E+01  0.2570463033E+00  0.4090232381E+01  0.3854340209E-16 -0.1581018297E+01  0.6211357419E+15  0.4096672094E+01  0.3883727768E-16 -0.1580631271E+01
  0.1200000000E+01  0.1000000000E+01  0.2570463033E+00  0.3779373017E+01 -0.1531035214E-16 -0.1332495575E+01  0.6211357419E+15  0.3791679036E+01 -0.1526228122E-16 -0.1334797842E+01
  0.1600000000E+01  0.1000000000E+01  0.3530110648E+00  0.7076487574E+01  0.1191591889E-15 -0.5057938085E+01  0.6211357419E+15  0.7083737918E+01  0.1191476875E-15 -0.5056642367E+01
  0.1553011065E+01  0.1000000000E+01  0.3530110648E+00  0.7145639533E+01  0.1356210936E-15 -0.4624848722E+01  0.6211357419E+15  0.7149645034E+01  0.1356483369E-15 -0.4626266957E+01
  0.1457046303E+01  0.1000000000E+01  0.3530110648E+00  0.5883206494E+01  0.1565435557E-15 -0.3623347255E+01  0.6211357419E+15  0.5882119888E+01  0.1563742202E-15 -0.3626305295E+01
  0.1342953697E+01  0.1000000000E+01  0.3530110648E+00  0.4762215996E+01  0.1296046342E-15 -0.2347642829E+01  0.6211357419E+15  0.4759519900E+01  0.1295431411E-15 -0.2353137868E+01
  0.1246988935E+01  0.1000000000E+01  0.3530110648E+00  0.3565490841E+01  0.4564615755E-16 -0.2287253654E+01  0.6211357419E+15  0.3571499570E+01  0.4561981420E-16 -0.2293513875E+01
  0.1200000000E+01  0.1000000000E+01  0.3530110648E+00  0.3574165649E+01  0.1170862625E-16 -0.2204435800E+01  0.6211357419E+15  0.3590117963E+01  0.1171681272E-16 -0.2211665967E+01
  0.1600000000E+01  0.1000000000E+01  0.4000000000E+00  0.7052147035E+01  0.1038212175E-15 -0.5952927140E+01  0.6211357419E+15  0.7062848452E+01  0.1038001684E-15 -0.5960959624E+01
  0.1553011065E+01  0.1000000000E+01  0.4000000000E+00  0.6268097659E+01  0.1333936928E-15 -0.4745924184E+01  0.6211357419E+15  0.6274290698E+01  0.1334925591E-15 -0.4753451961E+01
  0.1457046303E+01  0.1000000000E+01  0.4000000000E+00  0.5570829388E+01  0.1334261428E-15 -0.4155537856E+01  0.6211357419E+15  0.5569804276E+01  0.1335156173E-15 -0.4161529007E+01
  0.1342953697E+01  0.1000000000E+01  0.4000000000E+00  0.4308594659E+01  0.1262497295E-15 -0.2665067447E+01  0.6211357419E+15  0.4309073795E+01  0.1260574773E-15 -0.2677420839E+01
  0.1246988935E+01  0.1000000000E+01  0.4000000000E+00  0.3484727568E+01  0.3795843646E-16 -0.2734591253E+01  0.6211357419E+15  0.3491808116E+01  0.3799249455E-16 -0.2754598028E+01
  0.1200000000E+01  0.1000000000E+01  0.4000000000E+00  0.3009742918E+01  0.1080268176E-16 -0.2364731746E+01  0.6211357419E+15  0.3029065966E+01  0.1081013166E-16 -0.2389163428E+01
ZONE I=6, J=6, K=1, F=POINT
  0.2000000000E+01  0.1000000000E+01  0.0000000000E+00  0.2402666131E+01  0.7254560964E-19  0.2123407357E+02  0.6211357418E+15  0.2430602666E+01  0.9394795364E-19  0.2215531673E+02
  0.1953011065E+01  0.1000000000E+01  0.0000000000E+00  0.1290828231E+01 -0.3733221772E-16 -0.1366475093E+00  0.6211357419E+15  0.1295625812E+01 -0.3609561588E-16 -0.1498473774E+00
  0.1857046303E+01  0.1000000000E+01  0.0000000000E+00 -0.3072230919E+00 -0.1885924802E-16  0.1524056200E+00  0.6211357419E+15 -0.3072310302E+00 -0.1931057784E-16  0.1508035000E+00
  0.1742953697E+01  0.1000000000E+01  0.0000000000E+00  0.1339708109E+00  0.2724395173E-18 -0.3829689036E-01  0.6211357419E+15  0.1355511319E+00  0.1866337417E-18 -0.3781591289E-01
  0.1646988935E+01  0.1000000000E+01  0.0000000000E+00 -0.1278649553E+00  0.3845225776E-18  0.6071382559E-01  0.6211357419E+15 -0.1264800667E+00  0.3433136937E-18  0.5973858219E-01
  0.1600000000E+01  0.1000000000E+01  0.0000000000E+00  0.8842211242E-01 -0.9399419139E-18 -0.8507869064E-01  0.6211357419E+15  0.8829889795E-01 -0.1067296361E-17 -0.8353608523E-01
  0.2000000000E+01  0.1000000000E+01  0.4698893521E-01 -0.1101270319E-01  0.7357499445E-18  0.4848243364E+02  0.6211357419E+15 -0.5345277844E-01  0.6845587893E-18  0.4865780963E+02
  0.1953011065E+01  0.1000000000E+01  0.4698893521E-01  0.1099633467E+02  0.1441416857E-15  0.1498486997E+01  0.6211357419E+15  0.1098531279E+02  0.1429105989E-15  0.1517608764E+01
  0.1857046303E+01  0.1000000000E+01  0.4698893521E-01  0.1181711860E+02  0.3143933087E-15 -0.1871379653E+01  0.6211357419E+15  0.1182162511E+02  0.3148200740E-15 -0.1867385132E+01
  0.1742953697E+01  0.1000000000E+01  0.4698893521E-01  0.5861941001E+01 -0.1221142177E-16 -0.7181056893E+00  0.6211357419E+15  0.5868133938E+01 -0.1189730930E-16 -0.7197927523E+00
  0.1646988935E+01  0.1000000000E+01  0.4698893521E-01  0.4341893083E+01 -0.1157194448E-15 -0.7068999869E+00  0.6211357419E+15  0.4342219913E+01 -0.1159294469E-15 -0.7007345513E+00
  0.1600000000E+01  0.1000000000E+01  0.4698893521E-01  0.2662893799E+01 -0.8644863897E-16  0.1475063768E+00  0.6211357419E+15  0.2672890595E+01 -0.8625949952E-16  0.1487633449E+00
  0.2000000000E+01  0.1000000000E+01  0.1429536967E+00 -0.2809646480E+00  0.2610684222E-17  0.5050270983E+02  0.6211357419E+15 -0.2564494005E+00  0.2612595731E-17  0.5044020199E+02
  0.1953011065E+01  0.1000000000E+01  0.1429536967E+00  0.2822971056E+01 -0.5116712927E-15  0.1656483016E+02  0.6211357419E+15  0.2809258802E+01 -0.5115847572E-15  0.1660391233E+02
  0.1857046303E+01  0.1000000000E+01  0.1429536967E+00  0.1274142041E+02 -0.2424453136E-15 -0.3612305142E+01  0.6211357419E+15  0.1274607070E+02 -0.2429882398E-15 -0.3605602339E+01
  0.1742953697E+01  0.1000000000E+01  0.1429536967E+00  0.9624784150E+01  0.4863388732E-16 -0.4479457030E+01  0.6211357419E+15  0.9631294573E+01  0.4851861458E-16 -0.4486417984E+01
  0.1646988935E+01  0.1000000000E+01  0.1429536967E+00  0.8549577438E+01 -0.1438891803E-15 -0.2434097452E+01  0.6211357419E+15  0.8546291410E+01 -0.1435927758E-15 -0.2439383000E+01
  0.1600000000E+01  0.1000000000E+01  0.1429536967E+00  0.5026381307E+01 -0.2839311663E-15 -0.2098690652E+01  0.6211357419E+15  0.5051486715E+01 -0.2842580717E-15 -0.2109108063E+01
  0.2000000000E+01  0.1000000000E+01  0.2570463033E+00  0.1819221966E-01  0.1059162902E-17  0.4987122076E+02  0.6211357419E+15  0.1744115298E-01  0.9884324695E-18  0.4987707099E+02