TITLE = "Generated from ../MESH/Convergence_0000000000.hmesh and Convergence_0000007600.hsol"
VARIABLES = "x","y","z","veloT_x","veloT_y","veloT_z","slr_4","velo_x","velo_y","velo_z"
ZONE I=6, J=6, K=1, F=POINT
  0.4000000000E+00  0.1000000000E+01  0.0000000000E+00 -0.1801545067E-01  0.2209926403E-19  0.8177202449E-02  0.8403190107E+15 -0.6429152708E-02  0.2670163559E-19  0.7967364245E-02
  0.3530110648E+00  0.1000000000E+01  0.0000000000E+00 -0.6506198981E-02  0.8538775112E-20  0.1123960911E-03  0.8403190107E+15  0.5033985771E-02  0.4368227157E-20 -0.7927817717E-04
  0.2570463033E+00  0.1000000000E+01  0.0000000000E+00 -0.3276095421E-02  0.8950074643E-21  0.2658294709E-02  0.8403190107E+15  0.5670671499E-02 -0.1214808034E-20  0.2375397822E-02
  0.1429536967E+00  0.1000000000E+01  0.0000000000E+00 -0.3007822300E-02  0.4184380586E-21 -0.1167793941E-02  0.8403190107E+15  0.4897249478E-02 -0.4442691165E-21 -0.1095372391E-02
  0.4698893521E-01  0.1000000000E+01  0.0000000000E+00  0.2897735298E-03 -0.3247193242E-20  0.2618980389E-02  0.8403190107E+15  0.6190363627E-02 -0.2821132527E-20  0.1735182765E-02
  0.0000000000E+00  0.1000000000E+01  0.0000000000E+00 -0.7998456874E-02  0.2820448265E-22  0.2479016541E-02  0.8403190107E+15 -0.7261533390E-02  0.1678962760E-22  0.1740614318E-02
  0.4000000000E+00  0.1000000000E+01  0.4698893521E-01  0.2476305043E+00  0.3612973354E-17 -0.4199336567E-01  0.8403190107E+15  0.2757470160E+00  0.3452053728E-17  0.2019136959E-01
  0.3530110648E+00  0.1000000000E+01  0.4698893521E-01  0.1066059859E+00  0.3376612969E-17 -0.7203015110E-03  0.8403190107E+15  0.1353983542E+00  0.3008137511E-17  0.5119221085E-01
  0.2570463033E+00  0.1000000000E+01  0.4698893521E-01  0.7860152908E-01  0.1398864509E-17 -0.7861114450E-02  0.8403190107E+15  0.1032686439E+00  0.1413957235E-17  0.2429969419E-01
  0.1429536967E+00  0.1000000000E+01  0.4698893521E-01 -0.1524118696E-01  0.3947782760E-18  0.7117622393E-02  0.8403190107E+15  0.9194056599E-02  0.4659339182E-18  0.1363341632E-01
  0.4698893521E-01  0.1000000000E+01  0.4698893521E-01 -0.1341035501E-01  0.8903458063E-19  0.7077896225E-02  0.8403190107E+15  0.3712399173E-02  0.1078190687E-18 -0.3805818224E-02
  0.0000000000E+00  0.1000000000E+01  0.4698893521E-01 -0.1863995746E-01  0.1254886223E-20  0.4021672843E-02  0.8403190107E+15 -0.1787583780E-01  0.9015878704E-21 -0.1738675926E-02
  0.4000000000E+00  0.1000000000E+01  0.1429536967E+00  0.6061866400E+00  0.1027926467E-16 -0.1559793049E+00  0.8403190107E+15  0.6573678894E+00  0.1099284486E-16 -0.6572793798E-01
  0.3530110648E+00  0.1000000000E+01  0.1429536967E+00  0.3432025819E+00  0.7084213685E-17 -0.1861032267E+00  0.8403190107E+15  0.3954569498E+00  0.6514567048E-17 -0.1063221153E+00
  0.2570463033E+00  0.1000000000E+01  0.1429536967E+00  0.2205841152E+00  0.3185488083E-17 -0.1094036494E+00  0.8403190107E+15  0.2727795891E+00  0.3233237575E-17 -0.5627564984E-01
  0.1429536967E+00  0.1000000000E+01  0.1429536967E+00  0.1564076886E-01  0.1338912422E-17 -0.9855294185E-01  0.8403190107E+15  0.6897959172E-01  0.1348954352E-17 -0.8302889099E-01
  0.4698893521E-01  0.1000000000E+01  0.1429536967E+00 -0.1054939231E-01  0.2872448053E-18  0.8076208069E-02  0.8403190107E+15  0.2163265675E-01  0.3348780033E-18 -0.3047324772E-02
  0.0000000000E+00  0.1000000000E+01  0.1429536967E+00 -0.2103607802E-01  0.1575260989E-20  0.7797645151E-04  0.8403190107E+15 -0.2133060453E-01 -0.1647128712E-21 -0.6278070335E-02
  0.4000000000E+00  0.1000000000E+01  0.2570463033E+00  0.7446630715E+00  0.5358876001E-17 -0.4935368461E+00  0.8403190107E+15  0.8252115704E+00  0.5431754752E-17 -0.4031665436E+00
  0.3530110648E+00  0.1000000000E+01  0.2570463033E+00  0.5586826229E+00  0.4153402132E-17 -0.5069294612E+00  0.8403190107E+15  0.6389072760E+00  0.5228749174E-17 -0.4321488595E+00
  0.2570463033E+00  0.1000000000E+01  0.2570463033E+00  0.3179991875E+00  0.3078566298E-17 -0.3372574470E+00  0.8403190107E+15  0.4026274185E+00  0.3067679308E-17 -0.2865301145E+00
  0.1429536967E+00  0.1000000000E+01  0.2570463033E+00  0.7593612722E-01  0.2092774040E-17 -0.2837076691E+00  0.8403190107E+15  0.1660084894E+00  0.2082051352E-17 -0.2671172153E+00
  0.4698893521E-01  0.1000000000E+01  0.2570463033E+00  0.1230866431E-01  0.1381345666E-17 -0.4102724931E-01  0.8403190107E+15  0.6518375338E-01  0.1264440254E-17 -0.4992635737E-01
  0.0000000000E+00  0.1000000000E+01  0.2570463033E+00 -0.1398657304E-01 -0.5978506142E-20 -0.1689127106E-02  0.8403190107E+15 -0.1411894599E-01 -0.3245445289E-20 -0.5984258104E-02
  0.4000000000E+00  0.1000000000E+01  0.3530110648E+00  0.7975154481E+00  0.5593794206E-17 -0.8076680444E+00  0.8403190107E+15  0.9308865597E+00  0.5482145628E-17 -0.7066791706E+00
  0.3530110648E+00  0.1000000000E+01  0.3530110648E+00  0.6153799604E+00  0.4868448036E-17 -0.7819615693E+00  0.8403190107E+15  0.7263877957E+00  0.4873056495E-17 -0.7017879461E+00
  0.2570463033E+00  0.1000000000E+01  0.3530110648E+00  0.3569726521E+00  0.2328781695E-17 -0.5754469548E+00  0.8403190107E+15  0.4671857117E+00  0.1564410683E-17 -0.5219842493E+00
  0.1429536967E+00  0.1000000000E+01  0.3530110648E+00  0.9336250799E-01  0.2212535105E-17 -0.4408391652E+00  0.8403190107E+15  0.2151793941E+00  0.2083372238E-17 -0.4246666112E+00
  0.4698893521E-01  0.1000000000E+01  0.3530110648E+00  0.2480182139E-01  0.6498606390E-18 -0.1114087487E+00  0.8403190107E+15  0.9372519331E-01  0.7479512764E-18 -0.1221906567E+00
  0.0000000000E+00  0.1000000000E+01  0.3530110648E+00 -0.1414206432E-01  0.5551236274E-20 -0.4173309833E-02  0.8403190107E+15 -0.1448144045E-01  0.7077830986E-20 -0.7396989960E-02
  0.4000000000E+00  0.1000000000E+01  0.4000000000E+00  0.8117445263E+00  0.7036786557E-17 -0.9428318670E+00  0.8403190107E+15  0.9661069665E+00  0.7047890005E-17 -0.8502641824E+00
  0.3530110648E+00  0.1000000000E+01  0.4000000000E+00  0.6742076937E+00  0.6098909924E-17 -0.9297347493E+00  0.8403190107E+15  0.7992613042E+00  0.5816897477E-17 -0.8467945372E+00
  0.2570463033E+00  0.1000000000E+01  0.4000000000E+00  0.3760510291E+00  0.2549246591E-17 -0.7081478488E+00  0.8403190107E+15  0.4998052454E+00  0.2919484768E-17 -0.6505304781E+00
  0.1429536967E+00  0.1000000000E+01  0.4000000000E+00  0.1129233547E+00  0.2546949989E-17 -0.5321815109E+00  0.8403190107E+15  0.2511290971E+00  0.2671135301E-17 -0.5121050247E+00
  0.4698893521E-01  0.1000000000E+01  0.4000000000E+00  0.2728532838E-01  0.6383955559E-18 -0.1511427698E+00  0.8403190107E+15  0.1043573750E+00  0.6658465782E-18 -0.1582318199E+00
  0.0000000000E+00  0.1000000000E+01  0.4000000000E+00 -0.6334926761E-02  0.9303327381E-20 -0.7169889089E-02  0.8403190107E+15 -0.7204003882E-02  0.7604820580E-20 -0.8354826309E-02
ZONE I=6, J=6, K=1, F=POINT
  0.8000000000E+00  0.1000000000E+01  0.0000000000E+00  0.4148921239E-03 -0.9703869141E-19 -0.1111564572E-01  0.8403190107E+15  0.2281585247E-01 -0.9742533163E-19 -0.1134698120E-01
  0.7530110648E+00  0.1000000000E+01  0.0000000000E+00 -0.1369897970E-01 -0.2929984612E-18  0.6492552644E-02  0.8403190107E+15  0.7834608873E-02  0.1853006757E-18  0.6154085304E-02
  0.6570463033E+00  0.1000000000E+01  0.0000000000E+00 -0.1322851848E-01 -0.1401188752E-18  0.9385582432E-03  0.8403190107E+15  0.5778095605E-02  0.1065513086E-18  0.4262006738E-03
  0.5429536967E+00  0.1000000000E+01  0.0000000000E+00 -0.8937177408E-02 -0.2230181206E-18  0.7701057138E-02  0.8403190107E+15  0.6509476247E-02  0.1758998329E-18  0.7100693557E-02
  0.4469889352E+00  0.1000000000E+01  0.0000000000E+00 -0.9062834973E-02 -0.2548896848E-18  0.1249088539E-02  0.8403190107E+15  0.3265271588E-02  0.1188356729E-18  0.8129318739E-03
  0.4000000000E+00  0.1000000000E+01  0.0000000000E+00  0.9046681112E-02  0.2581222287E-19  0.7862445434E-02  0.8403190107E+15  0.2001337159E-01  0.3019200817E-19  0.7666236132E-02
  0.8000000000E+00  0.1000000000E+01  0.4698893521E-01  0.3630423514E+00 -0.2187055081E-16 -0.9155387033E-02  0.8403190107E+15  0.3939516810E+00 -0.2220244305E-16  0.7579471118E-01
  0.7530110648E+00  0.1000000000E+01  0.4698893521E-01  0.5522257462E+00 -0.1894269525E-16 -0.6724073746E-01  0.8403190107E+15  0.5833900511E+00 -0.2084039460E-16  0.1919522762E-01
  0.6570463033E+00  0.1000000000E+01  0.4698893521E-01  0.3177572245E+00 -0.4325573137E-17 -0.4065780265E-01  0.8403190107E+15  0.3469546065E+00 -0.3832594804E-17  0.4978951687E-01
  0.5429536967E+00  0.1000000000E+01  0.4698893521E-01  0.3288034133E+00  0.4173552071E-17 -0.2931802672E-01  0.8403190107E+15  0.3570190931E+00  0.4709161121E-17  0.5956561270E-01
  0.4469889352E+00  0.1000000000E+01  0.4698893521E-01  0.1873763261E+00  0.4638194218E-17 -0.7312662493E-02  0.8403190107E+15  0.2156498220E+00  0.4401248571E-17  0.6649517329E-01
  0.4000000000E+00  0.1000000000E+01  0.4698893521E-01  0.2898043825E+00  0.3375159226E-17 -0.4275396940E-01  0.8403190107E+15  0.3173061405E+00  0.3215656669E-17  0.1944580859E-01
  0.8000000000E+00  0.1000000000E+01  0.1429536967E+00  0.1285637289E+01 -0.5243777832E-16 -0.4650062280E+00  0.8403190107E+15  0.1312782639E+01 -0.5162341312E-16 -0.3339979162E+00
  0.7530110648E+00  0.1000000000E+01  0.1429536967E+00  0.1554681085E+01 -0.3018433045E-16 -0.3147261632E+00  0.8403190107E+15  0.1584021952E+01 -0.3126083611E-16 -0.1833141639E+00
  0.6570463033E+00  0.1000000000E+01  0.1429536967E+00  0.1052462854E+01  0.5922173403E-18 -0.2962994364E+00  0.8403190107E+15  0.1085453757E+01 -0.6751731478E-18 -0.1714459917E+00
  0.5429536967E+00  0.1000000000E+01  0.1429536967E+00  0.9057039196E+00  0.9668979560E-17 -0.1295977951E+00  0.8403190107E+15  0.9448843671E+00  0.1086207725E-16 -0.2015140198E-01
  0.4469889352E+00  0.1000000000E+01  0.1429536967E+00  0.5504605798E+00  0.1130540970E-16 -0.1896240188E+00  0.8403190107E+15  0.5971151547E+00  0.1049961853E-16 -0.9210628762E-01
  0.4000000000E+00  0.1000000000E+01  0.1429536967E+00  0.6582109705E+00  0.1098293167E-16 -0.1554374842E+00  0.8403190107E+15  0.7088393946E+00  0.1169516416E-16 -0.6517806813E-01
  0.8000000000E+00  0.1000000000E+01  0.2570463033E+00  0.2533519125E+01 -0.9184421476E-17 -0.1142971944E+01  0.8403190107E+15  0.2560765905E+01 -0.9163840126E-17 -0.9887609637E+00
  0.7530110648E+00  0.1000000000E+01  0.2570463033E+00  0.2353409842E+01 -0.5975017547E-17 -0.8836481693E+00  0.8403190107E+15  0.2387660280E+01 -0.3981661854E-17 -0.7313378183E+00
  0.6570463033E+00  0.1000000000E+01  0.2570463033E+00  0.1779158707E+01  0.8052525560E-18 -0.8171250141E+00  0.8403190107E+15  0.1822081910E+01 -0.4172407674E-18 -0.6649325168E+00
  0.5429536967E+00  0.1000000000E+01  0.2570463033E+00  0.1289451558E+01  0.3896974266E-17 -0.5420032501E+00  0.8403190107E+15  0.1346766821E+01  0.4820915200E-17 -0.3939884879E+00
  0.4469889352E+00  0.1000000000E+01  0.2570463033E+00  0.8473705240E+00  0.5059364423E-17 -0.5819658477E+00  0.8403190107E+15  0.9208518931E+00  0.6447287801E-17 -0.4691804186E+00
  0.4000000000E+00  0.1000000000E+01  0.2570463033E+00  0.7760242457E+00  0.5375692332E-17 -0.4928811398E+00  0.8403190107E+15  0.8556125940E+00  0.5455683690E-17 -0.4025477862E+00
  0.8000000000E+00  0.1000000000E+01  0.3530110648E+00  0.2942137152E+01  0.4084058225E-17 -0.1717832034E+01  0.8403190107E+15  0.2965415391E+01  0.3968428451E-17 -0.1543237700E+01
  0.7530110648E+00  0.1000000000E+01  0.3530110648E+00  0.2774890478E+01  0.4601720534E-17 -0.1483186559E+01  0.8403190107E+15  0.2812646271E+01  0.6792650186E-17 -0.1308972806E+01
  0.6570463033E+00  0.1000000000E+01  0.3530110648E+00  0.2153217453E+01  0.1893337337E-17 -0.1292111863E+01  0.8403190107E+15  0.2171245566E+01 -0.1542737697E-17 -0.1094182105E+01
  0.5429536967E+00  0.1000000000E+01  0.3530110648E+00  0.1499561194E+01  0.5810371660E-17 -0.9740922665E+00  0.8403190107E+15  0.1578512207E+01 -0.1028149721E-17 -0.7438317181E+00
  0.4469889352E+00  0.1000000000E+01  0.3530110648E+00  0.8820795632E+00  0.4966802540E-17 -0.9113044889E+00  0.8403190107E+15  0.1039389484E+01  0.4058845873E-17 -0.7623999437E+00
  0.4000000000E+00  0.1000000000E+01  0.3530110648E+00  0.8306936720E+00  0.5591970967E-17 -0.8075578267E+00  0.8403190107E+15  0.9637178535E+00  0.5475725952E-17 -0.7064739285E+00
  0.8000000000E+00  0.1000000000E+01  0.4000000000E+00  0.3110493768E+01 -0.3952516387E-17 -0.2041467109E+01  0.8403190107E+15  0.3123997552E+01 -0.3937792734E-17 -0.1894614886E+01
  0.7530110648E+00  0.1000000000E+01  0.4000000000E+00  0.2801339565E+01 -0.1146825623E-17 -0.1730812654E+01  0.8403190107E+15  0.2840616694E+01 -0.1453656782E-17 -0.1581255201E+01
  0.6570463033E+00  0.1000000000E+01  0.4000000000E+00  0.2239378438E+01  0.1256053373E-17 -0.1477331093E+01  0.8403190107E+15  0.2230066524E+01  0.2288621766E-17 -0.1300665657E+01
  0.5429536967E+00  0.1000000000E+01  0.4000000000E+00  0.1530230644E+01  0.6735600364E-17 -0.1138725600E+01  0.8403190107E+15  0.1620590424E+01  0.1075350991E-16 -0.9152353679E+00
  0.4469889352E+00  0.1000000000E+01  0.4000000000E+00  0.9434467153E+00  0.3158459458E-17 -0.1042453812E+01  0.8403190107E+15  0.1161643747E+01  0.7371830483E-17 -0.9080263987E+00
  0.4000000000E+00  0.1000000000E+01  0.4000000000E+00  0.8238208930E+00  0.7085183340E-17 -0.9422700098E+00  0.8403190107E+15  0.9772837450E+00  0.7082855048E-17 -0.8495413321E+00
ZONE I=6, J=6, K=1, F=POINT
  0.1200000000E+01  0.1000000000E+01  0.0000000000E+00 -0.5899359825E-01  0.4601880099E-19  0.3707420426E-01  0.8403190106E+15 -0.3350072960E-01  0.4958124363E-19  0.3715478674E-01
  0.1153011065E+01  0.1000000000E+01  0.0000000000E+00 -0.3173534866E-01 -0.1480934946E-17 -0.9334762728E-02  0.8403190106E+15 -0.5757108261E-02 -0.3333348023E-18 -0.9291298829E-02
  0.1057046303E+01  0.1000000000E+01  0.0000000000E+00 -0.2247622296E-01 -0.6143880943E-18  0.6167276930E-02  0.8403190106E+15  0.3320525433E-02  0.5176810343E-19  0.6107287633E-02
  0.9429536967E+00  0.1000000000E+01  0.0000000000E+00 -0.2404073127E-01 -0.1949295394E-19 -0.8035062285E-02  0.8403190107E+15  0.6528745649E-03 -0.1902957909E-19 -0.8151760719E-02
  0.8469889352E+00  0.1000000000E+01  0.0000000000E+00 -0.1579262325E-01 -0.2113141797E-19  0.5787340089E-02  0.8403190107E+15  0.7558460200E-02 -0.3058302241E-19  0.5552905323E-02
  0.8000000000E+00  0.1000000000E+01  0.0000000000E+00 -0.4464759375E-01 -0.1084580571E-18 -0.1056396560E-01  0.8403190107E+15 -0.2250532608E-01 -0.1077842196E-18 -0.1081920907E-01
  0.1200000000E+01  0.1000000000E+01  0.4698893521E-01  0.2294679607E+01 -0.3894762532E-16 -0.2713309554E+00  0.8403190106E+15  0.2317794241E+01 -0.4001638631E-16 -0.2118461939E+00
  0.1153011065E+01  0.1000000000E+01  0.4698893521E-01  0.1595062090E+01 -0.2334734695E-16 -0.1215788014E+00  0.8403190106E+15  0.1618289343E+01 -0.2417986085E-16 -0.5945003286E-01
  0.1057046303E+01  0.1000000000E+01  0.4698893521E-01  0.1445152695E+01 -0.1229000755E-16 -0.1447174273E+00  0.8403190106E+15  0.1470747721E+01 -0.1187081920E-16 -0.7429587504E-01
  0.9429536967E+00  0.1000000000E+01  0.4698893521E-01  0.8156185440E+00 -0.1173487329E-16 -0.1182219185E+00  0.8403190107E+15  0.8439884441E+00 -0.1247070621E-16 -0.3910723309E-01
  0.8469889352E+00  0.1000000000E+01  0.4698893521E-01  0.6979845027E+00 -0.2372704434E-16 -0.1010156997E+00  0.8403190107E+15  0.7278846477E+00 -0.2513502206E-16 -0.1741306965E-01
  0.8000000000E+00  0.1000000000E+01  0.4698893521E-01  0.3019348145E+00 -0.2115718462E-16 -0.7075941742E-02  0.8403190107E+15  0.3330113455E+00 -0.2149851469E-16  0.7781254931E-01
  0.1200000000E+01  0.1000000000E+01  0.1429536967E+00  0.5504582404E+01 -0.5727345793E-16 -0.7415605976E+00  0.8403190106E+15  0.5521684725E+01 -0.5761101131E-16 -0.6617971888E+00
  0.1153011065E+01  0.1000000000E+01  0.1429536967E+00  0.4030471673E+01 -0.7132187449E-16 -0.9564889075E+00  0.8403190106E+15  0.4041311445E+01 -0.7128662571E-16 -0.8682586348E+00
  0.1057046303E+01  0.1000000000E+01  0.1429536967E+00  0.3603410494E+01 -0.3581083168E-16 -0.7478257250E+00  0.8403190106E+15  0.3613774813E+01 -0.3578741925E-16 -0.6396916608E+00
  0.9429536967E+00  0.1000000000E+01  0.1429536967E+00  0.2276371644E+01 -0.3123267144E-16 -0.8517022074E+00  0.8403190107E+15  0.2296802646E+01 -0.3114868233E-16 -0.7244378756E+00
  0.8469889352E+00  0.1000000000E+01  0.1429536967E+00  0.1936335536E+01 -0.4493700713E-16 -0.4889307847E+00  0.8403190107E+15  0.1964924461E+01 -0.4623707442E-16 -0.3579931434E+00
  0.8000000000E+00  0.1000000000E+01  0.1429536967E+00  0.1201231692E+01 -0.5470482872E-16 -0.4666279284E+00  0.8403190107E+15  0.1230583718E+01 -0.5388774609E-16 -0.3356147734E+00
  0.1200000000E+01  0.1000000000E+01  0.2570463033E+00  0.6134580143E+01 -0.1071281540E-16 -0.1872466872E+01  0.8403190106E+15  0.6122602058E+01 -0.1058688562E-16 -0.1800711975E+01
  0.1153011065E+01  0.1000000000E+01  0.2570463033E+00  0.5571180473E+01 -0.3180029869E-16 -0.2146895526E+01  0.8403190106E+15  0.5552602629E+01 -0.2864450575E-16 -0.2062618700E+01
  0.1057046303E+01  0.1000000000E+01  0.2570463033E+00  0.4662804601E+01 -0.3010857385E-16 -0.1787688372E+01  0.8403190106E+15  0.4647066593E+01 -0.3015174656E-16 -0.1676184259E+01
  0.9429536967E+00  0.1000000000E+01  0.2570463033E+00  0.3585827858E+01 -0.2225779022E-16 -0.1846907878E+01  0.8403190106E+15  0.3590990479E+01 -0.2258556456E-16 -0.1713310929E+01
  0.8469889352E+00  0.1000000000E+01  0.2570463033E+00  0.2941428709E+01 -0.1397866007E-16 -0.1216777081E+01  0.8403190107E+15  0.2964849554E+01 -0.1126035649E-16 -0.1066789292E+01
  0.8000000000E+00  0.1000000000E+01  0.2570463033E+00  0.2495692576E+01 -0.9300334369E-17 -0.1145644349E+01  0.8403190107E+15  0.2523599013E+01 -0.9248132520E-17 -0.9909915218E+00
  0.1200000000E+01  0.1000000000E+01  0.3530110648E+00  0.6702587179E+01  0.2264152997E-16 -0.3042935653E+01  0.8403190106E+15  0.6670654060E+01  0.2270377547E-16 -0.2965323170E+01
  0.1153011065E+01  0.1000000000E+01  0.3530110648E+00  0.5937020255E+01  0.7309267656E-17 -0.3014371354E+01  0.8403190106E+15  0.5888323160E+01  0.7989425539E-17 -0.2924678785E+01
  0.1057046303E+01  0.1000000000E+01  0.3530110648E+00  0.5108578857E+01 -0.9940085956E-17 -0.2702602404E+01  0.8403190106E+15  0.5071792222E+01 -0.1152737324E-16 -0.2588741552E+01
  0.9429536967E+00  0.1000000000E+01  0.3530110648E+00  0.4033758096E+01 -0.1121611364E-16 -0.2517918723E+01  0.8403190106E+15  0.4018525014E+01 -0.1188594733E-16 -0.2381292466E+01
  0.8469889352E+00  0.1000000000E+01  0.3530110648E+00  0.3444548227E+01 -0.1755668402E-17 -0.1908143553E+01  0.8403190106E+15  0.3445151459E+01 -0.3176487069E-17 -0.1744477491E+01
  0.8000000000E+00  0.1000000000E+01  0.3530110648E+00  0.2894694481E+01  0.4149851988E-17 -0.1718165419E+01  0.8403190107E+15  0.2918686387E+01  0.4074372702E-17 -0.1543574958E+01
  0.1200000000E+01  0.1000000000E+01  0.4000000000E+00  0.6536550755E+01  0.2409877359E-16 -0.3368775457E+01  0.8403190106E+15  0.6494258743E+01  0.2414703348E-16 -0.3297221907E+01
  0.1153011065E+01  0.1000000000E+01  0.4000000000E+00  0.6129455315E+01  0.1722992615E-16 -0.3538515861E+01  0.8403190106E+15  0.6069769801E+01  0.1540366370E-16 -0.3460843469E+01
  0.1057046303E+01  0.1000000000E+01  0.4000000000E+00  0.5149765027E+01 -0.3965170512E-17 -0.3128031243E+01  0.8403190106E+15  0.5103552862E+01 -0.4454617065E-17 -0.3034290239E+01
  0.9429536967E+00  0.1000000000E+01  0.4000000000E+00  0.4181774018E+01 -0.1398878811E-16 -0.2926065119E+01  0.8403190106E+15  0.4155743580E+01 -0.1300307724E-16 -0.2806817016E+01
  0.8469889352E+00  0.1000000000E+01  0.4000000000E+00  0.3468577577E+01 -0.1032929681E-16 -0.2209926314E+01  0.8403190106E+15  0.3457527417E+01 -0.1063093474E-16 -0.2073607996E+01
  0.8000000000E+00  0.1000000000E+01  0.4000000000E+00  0.3105851879E+01 -0.3919142000E-17 -0.2045094350E+01  0.8403190107E+15  0.3119445126E+01 -0.3897923024E-17 -0.1897669159E+01
ZONE I=6, J=6, K=1, F=POINT
  0.1600000000E+01  0.1000000000E+01  0.0000000000E+00  0.9627057680E-01 -0.9616715527E-18 -0.6981921541E-01  0.8403190106E+15  0.1191664271E+00 -0.1088834792E-17 -0.7006341496E-01
  0.1553011065E+01  0.1000000000E+01  0.0000000000E+00 -0.2304325330E-01  0.3118578890E-18  0.4546945353E-01  0.8403190106E+15  0.1547103747E-03 -0.8082113428E-18  0.4537373948E-01
  0.1457046303E+01  0.1000000000E+01  0.0000000000E+00 -0.3862909473E-01  0.6244632540E-18 -0.2973384834E-02  0.8403190106E+15 -0.1491125310E-01  0.4191888169E-19 -0.2837636220E-02
  0.1342953697E+01  0.1000000000E+01  0.0000000000E+00 -0.2395806850E-01 -0.1221425643E-17  0.2994755645E-01  0.8403190106E+15  0.5756083263E-03  0.1355697660E-18  0.2986358802E-01
  0.1246988935E+01  0.1000000000E+01  0.0000000000E+00 -0.3534873862E-01  0.2633217329E-19 -0.7905379205E-02  0.8403190106E+15 -0.1021544817E-01  0.1776662652E-18 -0.7864243166E-02
  0.1200000000E+01  0.1000000000E+01  0.0000000000E+00  0.3080882401E-01  0.4280855169E-19  0.3711052878E-01  0.8403190106E+15  0.5646279592E-01  0.5099630510E-19  0.3719261546E-01
  0.1600000000E+01  0.1000000000E+01  0.4698893521E-01  0.2910412560E+01 -0.8639650697E-16  0.1995959481E+00  0.8403190106E+15  0.2912834776E+01 -0.8647988616E-16  0.2702167729E+00
  0.1553011065E+01  0.1000000000E+01  0.4698893521E-01  0.3453635370E+01 -0.4654643779E-16 -0.3084528994E+00  0.8403190106E+15  0.3460505715E+01 -0.4638565029E-16 -0.2398096821E+00
  0.1457046303E+01  0.1000000000E+01  0.4698893521E-01  0.2545824842E+01 -0.3043167742E-17 -0.1389751200E+00  0.8403190106E+15  0.2558686356E+01 -0.3363417081E-17 -0.7769442010E-01
  0.1342953697E+01  0.1000000000E+01  0.4698893521E-01  0.2595108970E+01  0.2702461016E-16 -0.1193614758E+00  0.8403190106E+15  0.2612093408E+01  0.2720234979E-16 -0.6344554877E-01
  0.1246988935E+01  0.1000000000E+01  0.4698893521E-01  0.2030987104E+01 -0.1076021404E-16 -0.9652560860E-01  0.8403190106E+15  0.2050825511E+01 -0.9914588780E-17 -0.3929953968E-01
  0.1200000000E+01  0.1000000000E+01  0.4698893521E-01  0.2394054689E+01 -0.4317248923E-16 -0.2770471458E+00  0.8403190106E+15  0.2414827943E+01 -0.4420691700E-16 -0.2171408504E+00
  0.1600000000E+01  0.1000000000E+01  0.1429536967E+00  0.6391641086E+01 -0.2760079731E-15 -0.1780723720E+01  0.8403190106E+15  0.6372501775E+01 -0.2759573195E-15 -0.1706808605E+01
  0.1553011065E+01  0.1000000000E+01  0.1429536967E+00  0.8177027274E+01 -0.1428981713E-15 -0.9408614998E+00  0.8403190106E+15  0.8187330804E+01 -0.1439736971E-15 -0.8644692714E+00
  0.1457046303E+01  0.1000000000E+01  0.1429536967E+00  0.6250133982E+01  0.2182614149E-16 -0.9385244401E+00  0.8403190106E+15  0.6270714125E+01  0.2299891790E-16 -0.8663497796E+00
  0.1342953697E+01  0.1000000000E+01  0.1429536967E+00  0.6307167787E+01  0.9379372116E-16 -0.2715592520E+00  0.8403190106E+15  0.6324366125E+01  0.9448724224E-16 -0.2026106380E+00
  0.1246988935E+01  0.1000000000E+01  0.1429536967E+00  0.4971219513E+01  0.2975522844E-16 -0.8630677359E+00  0.8403190106E+15  0.4985043401E+01  0.2845162547E-16 -0.7889952301E+00
  0.1200000000E+01  0.1000000000E+01  0.1429536967E+00  0.5672504526E+01 -0.6148941579E-16 -0.7360171901E+00  0.8403190106E+15  0.5677627096E+01 -0.6171124366E-16 -0.6570023686E+00
  0.1600000000E+01  0.1000000000E+01  0.2570463033E+00  0.1156093439E+02  0.9582284191E-16 -0.3405810498E+01  0.8403190106E+15  0.1154961460E+02  0.9570909444E-16 -0.3368657308E+01
  0.1553011065E+01  0.1000000000E+01  0.2570463033E+00  0.1058325374E+02  0.1162989780E-15 -0.2322271524E+01  0.8403190106E+15  0.1059007821E+02  0.1168789271E-15 -0.2274213626E+01
  0.1457046303E+01  0.1000000000E+01  0.2570463033E+00  0.9366460546E+01  0.1685353728E-15 -0.2247521008E+01  0.8403190106E+15  0.9388688884E+01  0.1696990516E-15 -0.2194058956E+01
  0.1342953697E+01  0.1000000000E+01  0.2570463033E+00  0.7847944875E+01  0.1179843764E-15 -0.1235626872E+01  0.8403190106E+15  0.7864764585E+01  0.1189121250E-15 -0.1180803062E+01
  0.1246988935E+01  0.1000000000E+01  0.2570463033E+00  0.6628053047E+01  0.3136215832E-16 -0.2074339360E+01  0.8403190106E+15  0.6627966828E+01  0.3221074794E-16 -0.2011406379E+01
  0.1200000000E+01  0.1000000000E+01  0.2570463033E+00  0.6174749957E+01 -0.1092720616E-16 -0.1862475197E+01  0.8403190106E+15  0.6162058568E+01 -0.1073839942E-16 -0.1793739230E+01
  0.1600000000E+01  0.1000000000E+01  0.3530110648E+00  0.1026459830E+02  0.1976926670E-15 -0.3691460623E+01  0.8403190106E+15  0.1023032623E+02  0.1976485329E-15 -0.3650802474E+01
  0.1553011065E+01  0.1000000000E+01  0.3530110648E+00  0.1055780363E+02  0.1967426852E-15 -0.3636900435E+01  0.8403190106E+15  0.1055346414E+02  0.1967120530E-15 -0.3591019719E+01
  0.1457046303E+01  0.1000000000E+01  0.3530110648E+00  0.9488542121E+01  0.1756869039E-15 -0.3335068452E+01  0.8403190106E+15  0.9507861746E+01  0.1760633740E-15 -0.3283252751E+01
  0.1342953697E+01  0.1000000000E+01  0.3530110648E+00  0.8310085904E+01  0.1300451224E-15 -0.2727627642E+01  0.8403190106E+15  0.8322531772E+01  0.1299150837E-15 -0.2668577696E+01
  0.1246988935E+01  0.1000000000E+01  0.3530110648E+00  0.6926412850E+01  0.5388467186E-16 -0.3052923541E+01  0.8403190106E+15  0.6912671893E+01  0.5373351443E-16 -0.2982507163E+01
  0.1200000000E+01  0.1000000000E+01  0.3530110648E+00  0.6781200937E+01  0.2274667194E-16 -0.3043145495E+01  0.8403190106E+15  0.6744584692E+01  0.2279816573E-16 -0.2965310943E+01
  0.1600000000E+01  0.1000000000E+01  0.4000000000E+00  0.1053833259E+02  0.1969405081E-15 -0.4347448094E+01  0.8403190106E+15  0.1050116413E+02  0.1968973485E-15 -0.4329591488E+01
  0.1553011065E+01  0.1000000000E+01  0.4000000000E+00  0.9983684098E+01  0.2073099502E-15 -0.3612781256E+01  0.8403190106E+15  0.9977746086E+01  0.2079048325E-15 -0.3586368233E+01
  0.1457046303E+01  0.1000000000E+01  0.4000000000E+00  0.9492274998E+01  0.1694959308E-15 -0.3838727167E+01  0.8403190106E+15  0.9507578860E+01  0.1697738905E-15 -0.3805631130E+01
  0.1342953697E+01  0.1000000000E+01  0.4000000000E+00  0.8167539511E+01  0.1280864343E-15 -0.3132566369E+01  0.8403190106E+15  0.8175515475E+01  0.1291764499E-15 -0.3084548017E+01
  0.1246988935E+01  0.1000000000E+01  0.4000000000E+00  0.7150772988E+01  0.4806602208E-16 -0.3632261697E+01  0.8403190106E+15  0.7129344912E+01  0.4763591779E-16 -0.3566460651E+01
  0.1200000000E+01  0.1000000000E+01  0.4000000000E+00  0.6508767129E+01  0.2432860431E-16 -0.3356158611E+01  0.8403190106E+15  0.6469184566E+01  0.2435516041E-16 -0.3287673889E+01
ZONE I=6, J=6, K=1, F=POINT
  0.2000000000E+01  0.1000000000E+01  0.0000000000E+00  0.2397815420E+01  0.6603826451E-19  0.2123079741E+02  0.8403190106E+15  0.2426557624E+01  0.8923197237E-19  0.2215194012E+02
  0.1953011065E+01  0.1000000000E+01  0.0000000000E+00  0.1256203403E+01 -0.3655121619E-16 -0.1422759945E+00  0.8403190106E+15  0.1277091987E+01 -0.3570869866E-16 -0.1547861859E+00
  0.1857046303E+01  0.1000000000E+01  0.0000000000E+00 -0.3495687012E+00 -0.2120453508E-16  0.1530177194E+00  0.8403190106E+15 -0.3275979361E+00 -0.2038661775E-16  0.1518196787E+00
  0.1742953697E+01  0.1000000000E+01  0.0000000000E+00  0.9609487756E-01  0.8528586633E-19 -0.3743250798E-01  0.8403190106E+15  0.1196218927E+00  0.2506182131E-19 -0.3689782757E-01
  0.1646988935E+01  0.1000000000E+01  0.0000000000E+00 -0.1682561431E+00  0.4155510690E-18  0.6106973440E-01  0.8403190106E+15 -0.1412362212E+00  0.2857086178E-18  0.6019806814E-01
  0.1600000000E+01  0.1000000000E+01  0.0000000000E+00  0.5508459593E-01 -0.1035375286E-17 -0.8183992407E-01  0.8403190106E+15  0.7761438820E-01 -0.1166016443E-17 -0.8072500378E-01
  0.2000000000E+01  0.1000000000E+01  0.4698893521E-01 -0.1803197761E-01  0.7473396309E-18  0.4844595336E+02  0.8403190106E+15 -0.5999893877E-01  0.6661255602E-18  0.4863912196E+02
  0.1953011065E+01  0.1000000000E+01  0.4698893521E-01  0.1087678420E+02  0.1341357349E-15  0.1387195362E+01  0.8403190106E+15  0.1084323573E+02  0.1326980067E-15  0.1386695077E+01
  0.1857046303E+01  0.1000000000E+01  0.4698893521E-01  0.1149482851E+02  0.2782807146E-15 -0.1969165906E+01  0.8403190106E+15  0.1147330951E+02  0.2769746226E-15 -0.1967600277E+01
  0.1742953697E+01  0.1000000000E+01  0.4698893521E-01  0.5587808209E+01 -0.4442604297E-16 -0.7126015653E+00  0.8403190106E+15  0.5577413470E+01 -0.4403574153E-16 -0.6763375917E+00
  0.1646988935E+01  0.1000000000E+01  0.4698893521E-01  0.4323992512E+01 -0.1170143427E-15 -0.6691425007E+00  0.8403190106E+15  0.4317380341E+01 -0.1169550962E-15 -0.6023619425E+00
  0.1600000000E+01  0.1000000000E+01  0.4698893521E-01  0.2745380299E+01 -0.8355205546E-16  0.1854407956E+00  0.8403190106E+15  0.2757646650E+01 -0.8348129850E-16  0.2507172876E+00
  0.2000000000E+01  0.1000000000E+01  0.1429536967E+00 -0.2811615138E+00  0.2782099717E-17  0.5045709655E+02  0.8403190106E+15 -0.2565900908E+00  0.2895033209E-17  0.5042003771E+02
  0.1953011065E+01  0.1000000000E+01  0.1429536967E+00  0.2688599366E+01 -0.5185360111E-15  0.1623538537E+02  0.8403190106E+15  0.2653021571E+01 -0.5204034054E-15  0.1625868690E+02
  0.1857046303E+01  0.1000000000E+01  0.1429536967E+00  0.1254925187E+02 -0.2614922486E-15 -0.3788878885E+01  0.8403190106E+15  0.1249556278E+02 -0.2585393760E-15 -0.3787403905E+01
  0.1742953697E+01  0.1000000000E+01  0.1429536967E+00  0.9832368157E+01 -0.4890572745E-16 -0.4138125712E+01  0.8403190106E+15  0.9779860658E+01 -0.5444901405E-16 -0.4106261330E+01
  0.1646988935E+01  0.1000000000E+01  0.1429536967E+00  0.9262256109E+01 -0.1661949989E-15 -0.2058743598E+01  0.8403190106E+15  0.9234001117E+01 -0.1664711015E-15 -0.1991655805E+01
  0.1600000000E+01  0.1000000000E+01  0.1429536967E+00  0.6019268484E+01 -0.2927143815E-15 -0.1780965805E+01  0.8403190106E+15  0.6040424965E+01 -0.2930641246E-15 -0.1711500332E+01
  0.2000000000E+01  0.1000000000E+01  0.2570463033E+00  0.1843420668E-01  0.1109760895E-17  0.4982933121E+02  0.8403190106E+15  0.1790479948E-01  0.1083282873E-17  0.4986257459E+02