TITLE = "Generated from ../MESH/Convergence_0000000000.hmesh and Convergence_0000003600.hsol"
VARIABLES = "x","y","z","veloT_x","veloT_y","veloT_z","slr_4","velo_x","velo_y","velo_z"
ZONE I=6, J=6, K=1, F=POINT
  0.4000000000E+00  0.1000000000E+01  0.0000000000E+00 -0.1129120687E-01  0.2851457759E-19  0.7133583023E-02  0.6472189061E+15 -0.1122744326E-01  0.2889497049E-19  0.7051337853E-02
  0.3530110648E+00  0.1000000000E+01  0.0000000000E+00 -0.9638927827E-03  0.7592871069E-20 -0.3915762112E-03  0.6472189061E+15 -0.1152545598E-02  0.6030550621E-20 -0.4337467526E-03
  0.2570463033E+00  0.1000000000E+01  0.0000000000E+00  0.2810313964E-03  0.1035803032E-20  0.2257748024E-02  0.6472189061E+15  0.3662425782E-04  0.4373851831E-21  0.2290519127E-02
  0.1429536967E+00  0.1000000000E+01  0.0000000000E+00 -0.6475522940E-03  0.1941970117E-21 -0.1075139040E-02  0.6472189061E+15 -0.9370647822E-03  0.6261016589E-22 -0.1079389401E-02
  0.4698893521E-01  0.1000000000E+01  0.0000000000E+00  0.1940201970E-02 -0.2260334478E-20  0.1967055396E-02  0.6472189061E+15  0.1685465874E-02 -0.2394551840E-20  0.1963461781E-02
  0.0000000000E+00  0.1000000000E+01  0.0000000000E+00 -0.7452233729E-02  0.1106567926E-22  0.2033935616E-02  0.6472189061E+15 -0.7467844228E-02  0.8886993387E-23  0.2066355670E-02
  0.4000000000E+00  0.1000000000E+01  0.4698893521E-01  0.2667997311E+00  0.2854939253E-17 -0.3338176421E-01  0.6472189061E+15  0.2675850708E+00  0.2850827839E-17 -0.3216593051E-01
  0.3530110648E+00  0.1000000000E+01  0.4698893521E-01  0.1279913466E+00  0.2552090698E-17  0.3186142916E-02  0.6472189061E+15  0.1279592117E+00  0.2551309780E-17  0.3786678365E-02
  0.2570463033E+00  0.1000000000E+01  0.4698893521E-01  0.1022426271E+00  0.9827323312E-18 -0.9201821499E-02  0.6472189061E+15  0.1018693553E+00  0.9811783403E-18 -0.1056133518E-01
  0.1429536967E+00  0.1000000000E+01  0.4698893521E-01  0.8009344664E-02  0.2333460903E-18 -0.7276888538E-02  0.6472189061E+15  0.6910290253E-02  0.2295434222E-18 -0.8570357812E-02
  0.4698893521E-01  0.1000000000E+01  0.4698893521E-01 -0.1847098329E-03  0.4241470434E-19 -0.8946504699E-02  0.6472189061E+15 -0.1238122945E-02  0.4165853570E-19 -0.8763822388E-02
  0.0000000000E+00  0.1000000000E+01  0.4698893521E-01 -0.1798417331E-01  0.9239512925E-21  0.2211014783E-02  0.6472189061E+15 -0.1805051745E-01  0.9103059522E-21  0.2445683158E-02
  0.4000000000E+00  0.1000000000E+01  0.1429536967E+00  0.5941378938E+00  0.9394410704E-17 -0.8695056645E-01  0.6472189061E+15  0.5967642969E+00  0.9424530702E-17 -0.7785084304E-01
  0.3530110648E+00  0.1000000000E+01  0.1429536967E+00  0.3363880854E+00  0.5462968723E-17 -0.1303253218E+00  0.6472189061E+15  0.3394720869E+00  0.5414339156E-17 -0.1228095544E+00
  0.2570463033E+00  0.1000000000E+01  0.1429536967E+00  0.2428303155E+00  0.2138637365E-17 -0.8334843860E-01  0.6472189061E+15  0.2449566228E+00  0.2141718369E-17 -0.7952244123E-01
  0.1429536967E+00  0.1000000000E+01  0.1429536967E+00  0.4757092257E-01  0.7268782952E-18 -0.1078266261E+00  0.6472189061E+15  0.4614105121E-01  0.7277827120E-18 -0.1069358037E+00
  0.4698893521E-01  0.1000000000E+01  0.1429536967E+00 -0.1277932462E-02  0.1555694962E-18 -0.1019246585E-01  0.6472189061E+15 -0.3454270709E-02  0.1525421644E-18 -0.9447171484E-02
  0.0000000000E+00  0.1000000000E+01  0.1429536967E+00 -0.2135288295E-01 -0.1803694817E-21 -0.1216970719E-02  0.6472189061E+15 -0.2137654704E-01 -0.3644674243E-21 -0.9460044296E-03
  0.4000000000E+00  0.1000000000E+01  0.2570463033E+00  0.6859026277E+00  0.2989093036E-17 -0.3212957148E+00  0.6472189061E+15  0.6912156764E+00  0.3008180412E-17 -0.3070165101E+00
  0.3530110648E+00  0.1000000000E+01  0.2570463033E+00  0.5135970563E+00  0.2560343856E-17 -0.3754904690E+00  0.6472189061E+15  0.5200905719E+00  0.2751119050E-17 -0.3619328125E+00
  0.2570463033E+00  0.1000000000E+01  0.2570463033E+00  0.3287780139E+00  0.1552145884E-17 -0.2712036255E+00  0.6472189061E+15  0.3357262215E+00  0.1550641401E-17 -0.2606582505E+00
  0.1429536967E+00  0.1000000000E+01  0.2570463033E+00  0.1099266176E+00  0.1237884758E-17 -0.2749095787E+00  0.6472189061E+15  0.1121623974E+00  0.1236374616E-17 -0.2701306550E+00
  0.4698893521E-01  0.1000000000E+01  0.2570463033E+00  0.1953864040E-01  0.9426473803E-18 -0.5147213322E-01  0.6472189061E+15  0.1808410468E-01  0.9629088854E-18 -0.4990733813E-01
  0.0000000000E+00  0.1000000000E+01  0.2570463033E+00 -0.1421949601E-01 -0.3373517877E-20 -0.9089746375E-03  0.6472189061E+15 -0.1420187106E-01 -0.2812662867E-20 -0.6733059015E-03
  0.4000000000E+00  0.1000000000E+01  0.3530110648E+00  0.7277438828E+00  0.3267038542E-17 -0.5785620923E+00  0.6472189061E+15  0.7325439376E+00  0.3262244368E-17 -0.5646019076E+00
  0.3530110648E+00  0.1000000000E+01  0.3530110648E+00  0.5460283595E+00  0.2917621503E-17 -0.6007481368E+00  0.6472189061E+15  0.5531626924E+00  0.2923164793E-17 -0.5860984787E+00
  0.2570463033E+00  0.1000000000E+01  0.3530110648E+00  0.3502219658E+00  0.1200795071E-17 -0.4736998552E+00  0.6472189061E+15  0.3616331288E+00  0.1026459258E-17 -0.4613120322E+00
  0.1429536967E+00  0.1000000000E+01  0.3530110648E+00  0.1210209101E+00  0.1677138938E-17 -0.4130247316E+00  0.6472189061E+15  0.1284218417E+00  0.1632259038E-17 -0.4076566323E+00
  0.4698893521E-01  0.1000000000E+01  0.3530110648E+00  0.2482439910E-01  0.5154836230E-18 -0.1136354175E+00  0.6472189061E+15  0.2499894065E-01  0.4999968368E-18 -0.1118423649E+00
  0.0000000000E+00  0.1000000000E+01  0.3530110648E+00 -0.1448550159E-01  0.5434907992E-20 -0.8670316971E-03  0.6472189061E+15 -0.1437636268E-01  0.6112910716E-20 -0.6543450362E-03
  0.4000000000E+00  0.1000000000E+01  0.4000000000E+00  0.7129056385E+00  0.5409529086E-17 -0.7142244069E+00  0.6472189061E+15  0.7162043122E+00  0.5418005369E-17 -0.6997711587E+00
  0.3530110648E+00  0.1000000000E+01  0.4000000000E+00  0.5789736535E+00  0.4637748586E-17 -0.7261388397E+00  0.6472189061E+15  0.5857176638E+00  0.4574815632E-17 -0.7099469788E+00
  0.2570463033E+00  0.1000000000E+01  0.4000000000E+00  0.3555106898E+00  0.1688617632E-17 -0.5782971368E+00  0.6472189061E+15  0.3695501792E+00  0.1782463267E-17 -0.5649432758E+00
  0.1429536967E+00  0.1000000000E+01  0.4000000000E+00  0.1336058818E+00  0.1978859372E-17 -0.4838933375E+00  0.6472189061E+15  0.1439094847E+00  0.2004529387E-17 -0.4791359036E+00
  0.4698893521E-01  0.1000000000E+01  0.4000000000E+00  0.2207928729E-01  0.5094918881E-18 -0.1413322015E+00  0.6472189061E+15  0.2262964730E-01  0.5057891828E-18 -0.1398075106E+00
  0.0000000000E+00  0.1000000000E+01  0.4000000000E+00 -0.7427688135E-02  0.8274423729E-20 -0.2048518154E-02  0.6472189061E+15 -0.7074804006E-02  0.7934987814E-20 -0.1961675553E-02
ZONE I=6, J=6, K=1, F=POINT
  0.8000000000E+00  0.1000000000E+01  0.0000000000E+00  0.1857552497E-01 -0.8440812685E-19 -0.1153593362E-01  0.6472189061E+15  0.1862139460E-01 -0.8696472664E-19 -0.1131501270E-01
  0.7530110648E+00  0.1000000000E+01  0.0000000000E+00  0.2960047047E-02  0.9848747576E-19  0.5988337664E-02  0.6472189061E+15  0.3211575276E-02  0.1023052303E-18  0.6096628157E-02
  0.6570463033E+00  0.1000000000E+01  0.0000000000E+00  0.9545877405E-04  0.2804236814E-19  0.1694774347E-03  0.6472189061E+15  0.5539702103E-03  0.3406171022E-19  0.2091491383E-03
  0.5429536967E+00  0.1000000000E+01  0.0000000000E+00  0.1293137357E-02  0.3701750345E-19  0.6995636007E-02  0.6472189061E+15  0.1817959391E-02  0.5071861504E-19  0.6997029102E-02
  0.4469889352E+00  0.1000000000E+01  0.0000000000E+00 -0.1338765716E-02 -0.2178447847E-19  0.6054264987E-03  0.6472189061E+15 -0.9181498655E-03 -0.1064537773E-19  0.5625993998E-03
  0.4000000000E+00  0.1000000000E+01  0.0000000000E+00  0.1524088232E-01  0.3217838384E-19  0.6828930833E-02  0.6472189061E+15  0.1540459254E-01  0.3257519846E-19  0.6749531959E-02
  0.8000000000E+00  0.1000000000E+01  0.4698893521E-01  0.3153389864E+00 -0.2440898175E-16  0.3086883325E-01  0.6472189061E+15  0.3165978881E+00 -0.2442073419E-16  0.2021271332E-01
  0.7530110648E+00  0.1000000000E+01  0.4698893521E-01  0.5118608030E+00 -0.2387733211E-16 -0.2717593101E-01  0.6472189061E+15  0.5128751826E+00 -0.2392497051E-16 -0.3566486193E-01
  0.6570463033E+00  0.1000000000E+01  0.4698893521E-01  0.2959687669E+00 -0.4937327408E-17  0.3058606939E-02  0.6472189061E+15  0.2974980440E+00 -0.4925169813E-17 -0.4668440959E-03
  0.5429536967E+00  0.1000000000E+01  0.4698893521E-01  0.3298180413E+00  0.4177472397E-17  0.9739125654E-02  0.6472189061E+15  0.3316647320E+00  0.4208593174E-17  0.8879525921E-02
  0.4469889352E+00  0.1000000000E+01  0.4698893521E-01  0.2040153265E+00  0.3780496989E-17  0.1257784179E-01  0.6472189061E+15  0.2055832438E+00  0.3769258271E-17  0.1363489922E-01
  0.4000000000E+00  0.1000000000E+01  0.4698893521E-01  0.3089067582E+00  0.2613495963E-17 -0.3413424712E-01  0.6472189061E+15  0.3099626530E+00  0.2607617674E-17 -0.3291973573E-01
  0.8000000000E+00  0.1000000000E+01  0.1429536967E+00  0.9937753082E+00 -0.5570210128E-16 -0.3075718910E+00  0.6472189061E+15  0.9917266998E+00 -0.5574292169E-16 -0.3101273020E+00
  0.7530110648E+00  0.1000000000E+01  0.1429536967E+00  0.1296540315E+01 -0.3581951757E-16 -0.1605014167E+00  0.6472189061E+15  0.1291655120E+01 -0.3578070549E-16 -0.1611261643E+00
  0.6570463033E+00  0.1000000000E+01  0.1429536967E+00  0.8717717194E+00 -0.4996405474E-17 -0.1541956418E+00  0.6472189061E+15  0.8683614830E+00 -0.4852860693E-17 -0.1495164849E+00
  0.5429536967E+00  0.1000000000E+01  0.1429536967E+00  0.8169471684E+00  0.9163192185E-17 -0.1623606296E-01  0.6472189061E+15  0.8166399760E+00  0.9159617100E-17 -0.6766240369E-02
  0.4469889352E+00  0.1000000000E+01  0.1429536967E+00  0.5237151241E+00  0.8917745698E-17 -0.1051239175E+00  0.6472189061E+15  0.5248349484E+00  0.8866612732E-17 -0.9526234572E-01
  0.4000000000E+00  0.1000000000E+01  0.1429536967E+00  0.6457613016E+00  0.1010894680E-16 -0.8639694920E-01  0.6472189061E+15  0.6484416981E+00  0.1014171114E-16 -0.7730130081E-01
  0.8000000000E+00  0.1000000000E+01  0.2570463033E+00  0.1920104489E+01 -0.1607367869E-16 -0.8255259099E+00  0.6472189061E+15  0.1913527622E+01 -0.1608187766E-16 -0.8156500255E+00
  0.7530110648E+00  0.1000000000E+01  0.2570463033E+00  0.1810497305E+01 -0.1113615514E-16 -0.5692957165E+00  0.6472189061E+15  0.1802827112E+01 -0.1094757369E-16 -0.5582287630E+00
  0.6570463033E+00  0.1000000000E+01  0.2570463033E+00  0.1378063796E+01 -0.5508374479E-17 -0.5053174842E+00  0.6472189061E+15  0.1370218302E+01 -0.5290599850E-17 -0.4930970744E+00
  0.5429536967E+00  0.1000000000E+01  0.2570463033E+00  0.1068054904E+01  0.1773945535E-17 -0.2502360257E+00  0.6472189061E+15  0.1065653751E+01  0.1726868127E-17 -0.2353995789E+00
  0.4469889352E+00  0.1000000000E+01  0.2570463033E+00  0.7561995345E+00  0.3409140831E-17 -0.3616776766E+00  0.6472189061E+15  0.7596732846E+00  0.3595936659E-17 -0.3466364256E+00
  0.4000000000E+00  0.1000000000E+01  0.2570463033E+00  0.7170315858E+00  0.3017090458E-17 -0.3206459920E+00  0.6472189061E+15  0.7221412167E+00  0.3035828792E-17 -0.3064057190E+00
  0.8000000000E+00  0.1000000000E+01  0.3530110648E+00  0.2063425183E+01 -0.1720910152E-17 -0.1270767773E+01  0.6472189061E+15  0.2052637715E+01 -0.1733089611E-17 -0.1265905959E+01
  0.7530110648E+00  0.1000000000E+01  0.3530110648E+00  0.1992780524E+01  0.2559411126E-17 -0.1047608943E+01  0.6472189061E+15  0.1984186243E+01  0.2078164088E-17 -0.1041251582E+01
  0.6570463033E+00  0.1000000000E+01  0.3530110648E+00  0.1528874108E+01 -0.3464077240E-17 -0.8654439243E+00  0.6472189061E+15  0.1520353088E+01 -0.3250244850E-17 -0.8590912890E+00
  0.5429536967E+00  0.1000000000E+01  0.3530110648E+00  0.1159760016E+01 -0.3796224254E-17 -0.5632595109E+00  0.6472189061E+15  0.1155039873E+01 -0.3564487775E-17 -0.5540110113E+00
  0.4469889352E+00  0.1000000000E+01  0.3530110648E+00  0.7847790843E+00  0.2467055902E-17 -0.6127865694E+00  0.6472189061E+15  0.7875039721E+00  0.2367217362E-17 -0.6000827072E+00
  0.4000000000E+00  0.1000000000E+01  0.3530110648E+00  0.7598436053E+00  0.3241728091E-17 -0.5783685500E+00  0.6472189061E+15  0.7650684312E+00  0.3236933585E-17 -0.5644037827E+00
  0.8000000000E+00  0.1000000000E+01  0.4000000000E+00  0.2123358210E+01 -0.7674014989E-17 -0.1535648700E+01  0.6472189061E+15  0.2110446843E+01 -0.7661161420E-17 -0.1534288438E+01
  0.7530110648E+00  0.1000000000E+01  0.4000000000E+00  0.1930610865E+01 -0.4160055272E-17 -0.1251571064E+01  0.6472189061E+15  0.1922181667E+01 -0.4287054946E-17 -0.1249994598E+01
  0.6570463033E+00  0.1000000000E+01  0.4000000000E+00  0.1521993726E+01 -0.1412849941E-17 -0.1057196019E+01  0.6472189061E+15  0.1512667527E+01 -0.1379828543E-17 -0.1055661495E+01
  0.5429536967E+00  0.1000000000E+01  0.4000000000E+00  0.1137365195E+01  0.6116859902E-17 -0.7680188904E+00  0.6472189061E+15  0.1130336505E+01  0.5868154542E-17 -0.7595117696E+00
  0.4469889352E+00  0.1000000000E+01  0.4000000000E+00  0.8391391233E+00  0.6439527206E-17 -0.7708259818E+00  0.6472189061E+15  0.8403166629E+00  0.6495472277E-17 -0.7580934903E+00
  0.4000000000E+00  0.1000000000E+01  0.4000000000E+00  0.7238618290E+00  0.5429906342E-17 -0.7134619763E+00  0.6472189061E+15  0.7272414652E+00  0.5434868187E-17 -0.6990702030E+00
ZONE I=6, J=6, K=1, F=POINT
  0.1200000000E+01  0.1000000000E+01  0.0000000000E+00 -0.3140012624E-01  0.5753766389E-19  0.3706680275E-01  0.6472189061E+15 -0.3100540533E-01  0.5970465977E-19  0.3668149380E-01
  0.1153011065E+01  0.1000000000E+01  0.0000000000E+00 -0.4283728441E-02 -0.1902356609E-18 -0.9610238089E-02  0.6472189061E+15 -0.4287954866E-02 -0.1939912972E-18 -0.9611599482E-02
  0.1057046303E+01  0.1000000000E+01  0.0000000000E+00  0.3135830658E-02  0.4590296861E-19  0.5867491129E-02  0.6472189061E+15  0.3157495006E-02  0.4588600088E-19  0.5908559079E-02
  0.9429536967E+00  0.1000000000E+01  0.0000000000E+00 -0.1525527610E-02  0.3044879063E-20 -0.8338600842E-02  0.6472189061E+15 -0.1353845450E-02  0.2021240505E-20 -0.8345980992E-02
  0.8469889352E+00  0.1000000000E+01  0.0000000000E+00  0.3681933210E-02 -0.2235081635E-19  0.5436731766E-02  0.6472189061E+15  0.3952746384E-02 -0.2380159696E-19  0.5545524971E-02
  0.8000000000E+00  0.1000000000E+01  0.0000000000E+00 -0.2696590205E-01 -0.9397423651E-19 -0.1100695710E-01  0.6472189061E+15 -0.2664173648E-01 -0.9669387648E-19 -0.1079490301E-01
  0.1200000000E+01  0.1000000000E+01  0.4698893521E-01  0.2140119107E+01 -0.4213088558E-16 -0.2052891284E+00  0.6472189061E+15  0.2142906649E+01 -0.4223016007E-16 -0.2148578491E+00
  0.1153011065E+01  0.1000000000E+01  0.4698893521E-01  0.1458480381E+01 -0.2668870392E-16 -0.5667134525E-01  0.6472189061E+15  0.1460190606E+01 -0.2673026528E-16 -0.6613777345E-01
  0.1057046303E+01  0.1000000000E+01  0.4698893521E-01  0.1329261809E+01 -0.1304289249E-16 -0.8570510349E-01  0.6472189061E+15  0.1330850770E+01 -0.1303616332E-16 -0.9441521426E-01
  0.9429536967E+00  0.1000000000E+01  0.4698893521E-01  0.7337183191E+00 -0.1558763542E-16 -0.6535213633E-01  0.6472189061E+15  0.7359416223E+00 -0.1565046077E-16 -0.7357850029E-01
  0.8469889352E+00  0.1000000000E+01  0.4698893521E-01  0.6395846306E+00 -0.2853597501E-16 -0.5759869933E-01  0.6472189061E+15  0.6417063102E+00 -0.2862119698E-16 -0.6785054333E-01
  0.8000000000E+00  0.1000000000E+01  0.4698893521E-01  0.2543593821E+00 -0.2371090622E-16  0.3292557506E-01  0.6472189061E+15  0.2561167185E+00 -0.2373386480E-16  0.2221625980E-01
  0.1200000000E+01  0.1000000000E+01  0.1429536967E+00  0.4893346025E+01 -0.5911992750E-16 -0.6077516270E+00  0.6472189061E+15  0.4899390497E+01 -0.5916434987E-16 -0.6210965382E+00
  0.1153011065E+01  0.1000000000E+01  0.1429536967E+00  0.3452447328E+01 -0.6975187703E-16 -0.8085051066E+00  0.6472189061E+15  0.3454290468E+01 -0.6960420805E-16 -0.8216650192E+00
  0.1057046303E+01  0.1000000000E+01  0.1429536967E+00  0.3089886190E+01 -0.4110418760E-16 -0.5827500238E+00  0.6472189061E+15  0.3089668553E+01 -0.4111573514E-16 -0.5939504290E+00
  0.9429536967E+00  0.1000000000E+01  0.1429536967E+00  0.1867102553E+01 -0.3661292109E-16 -0.6783012197E+00  0.6472189061E+15  0.1868943390E+01 -0.3661114570E-16 -0.6863527205E+00
  0.8469889352E+00  0.1000000000E+01  0.1429536967E+00  0.1612543363E+01 -0.5230960355E-16 -0.3289293290E+00  0.6472189061E+15  0.1614095564E+01 -0.5232205221E-16 -0.3338386832E+00
  0.8000000000E+00  0.1000000000E+01  0.1429536967E+00  0.9111430205E+00 -0.5788986771E-16 -0.3091991703E+00  0.6472189061E+15  0.9101681907E+00 -0.5795988916E-16 -0.3117110869E+00
  0.1200000000E+01  0.1000000000E+01  0.2570463033E+00  0.4952836911E+01 -0.9569129850E-17 -0.1679796173E+01  0.6472189061E+15  0.4955744127E+01 -0.9499611489E-17 -0.1682468701E+01
  0.1153011065E+01  0.1000000000E+01  0.2570463033E+00  0.4436623449E+01 -0.4183365636E-16 -0.1915723469E+01  0.6472189061E+15  0.4436246988E+01 -0.4175562795E-16 -0.1918572093E+01
  0.1057046303E+01  0.1000000000E+01  0.2570463033E+00  0.3647336483E+01 -0.3683386452E-16 -0.1501103390E+01  0.6472189061E+15  0.3644227023E+01 -0.3683931591E-16 -0.1501300815E+01
  0.9429536967E+00  0.1000000000E+01  0.2570463033E+00  0.2744202540E+01 -0.3380020696E-16 -0.1538922664E+01  0.6472189061E+15  0.2741437995E+01 -0.3363506618E-16 -0.1535200421E+01
  0.8469889352E+00  0.1000000000E+01  0.2570463033E+00  0.2254899119E+01 -0.1805617143E-16 -0.9053519265E+00  0.6472189061E+15  0.2250136203E+01 -0.1812345979E-16 -0.8976903935E+00
  0.8000000000E+00  0.1000000000E+01  0.2570463033E+00  0.1882200488E+01 -0.1622083869E-16 -0.8280057687E+00  0.6472189061E+15  0.1875342589E+01 -0.1621498596E-16 -0.8177847735E+00
  0.1200000000E+01  0.1000000000E+01  0.3530110648E+00  0.5068732992E+01  0.2770624718E-16 -0.2778402135E+01  0.6472189061E+15  0.5074138682E+01  0.2773571704E-16 -0.2772712024E+01
  0.1153011065E+01  0.1000000000E+01  0.3530110648E+00  0.4362862268E+01  0.7577327577E-17 -0.2683729563E+01  0.6472189061E+15  0.4362047232E+01  0.7611618633E-17 -0.2678508061E+01
  0.1057046303E+01  0.1000000000E+01  0.3530110648E+00  0.3702917657E+01 -0.1387202004E-16 -0.2283500627E+01  0.6472189061E+15  0.3697345462E+01 -0.1393426515E-16 -0.2278126425E+01
  0.9429536967E+00  0.1000000000E+01  0.3530110648E+00  0.2844112136E+01 -0.1901181194E-16 -0.2071064646E+01  0.6472189061E+15  0.2839637890E+01 -0.1890936837E-16 -0.2063777264E+01
  0.8469889352E+00  0.1000000000E+01  0.3530110648E+00  0.2447260448E+01 -0.6705232402E-17 -0.1463439097E+01  0.6472189061E+15  0.2441862518E+01 -0.6904511175E-17 -0.1457908627E+01
  0.8000000000E+00  0.1000000000E+01  0.3530110648E+00  0.2016318801E+01 -0.1654073378E-17 -0.1271023116E+01  0.6472189061E+15  0.2006817344E+01 -0.1659137565E-17 -0.1266190504E+01
  0.1200000000E+01  0.1000000000E+01  0.4000000000E+00  0.4708666150E+01  0.3309680297E-16 -0.3061033100E+01  0.6472189061E+15  0.4713283604E+01  0.3311135370E-16 -0.3052656881E+01
  0.1153011065E+01  0.1000000000E+01  0.4000000000E+00  0.4366758220E+01  0.2318293896E-16 -0.3149816070E+01  0.6472189061E+15  0.4367104289E+01  0.2302655787E-16 -0.3144407683E+01
  0.1057046303E+01  0.1000000000E+01  0.4000000000E+00  0.3578078103E+01 -0.2277992728E-17 -0.2621084965E+01  0.6472189061E+15  0.3572383639E+01 -0.2399242898E-17 -0.2619370244E+01
  0.9429536967E+00  0.1000000000E+01  0.4000000000E+00  0.2851272341E+01 -0.1758836673E-16 -0.2378837845E+01  0.6472189061E+15  0.2846606492E+01 -0.1765268788E-16 -0.2376324696E+01
  0.8469889352E+00  0.1000000000E+01  0.4000000000E+00  0.2350028551E+01 -0.1335847848E-16 -0.1693103705E+01  0.6472189061E+15  0.2346207591E+01 -0.1327381132E-16 -0.1691426517E+01
  0.8000000000E+00  0.1000000000E+01  0.4000000000E+00  0.2118026700E+01 -0.7648353279E-17 -0.1538913062E+01  0.6472189061E+15  0.2107024441E+01 -0.7635647286E-17 -0.1537173411E+01
ZONE I=6, J=6, K=1, F=POINT
  0.1600000000E+01  0.1000000000E+01  0.0000000000E+00  0.1300220283E+00 -0.9047779795E-18 -0.7195405966E-01  0.6472189061E+15  0.1302129679E+00 -0.1024504299E-17 -0.7138078034E-01
  0.1553011065E+01  0.1000000000E+01  0.0000000000E+00  0.1008158923E-01 -0.1297793260E-17  0.4530834906E-01  0.6472189061E+15  0.1046862129E-01 -0.1346222979E-17  0.4531228949E-01
  0.1457046303E+01  0.1000000000E+01  0.0000000000E+00 -0.7418955657E-02 -0.8379266060E-19 -0.3290302614E-02  0.6472189061E+15 -0.7029466405E-02 -0.1113664017E-18 -0.3246784448E-02
  0.1342953697E+01  0.1000000000E+01  0.0000000000E+00  0.5175227483E-02  0.3954314063E-18  0.2982080097E-01  0.6472189061E+15  0.5840160095E-02  0.4329936367E-18  0.2974935542E-01
  0.1246988935E+01  0.1000000000E+01  0.0000000000E+00 -0.7645130066E-02  0.1309126110E-18 -0.8170970891E-02  0.6472189061E+15 -0.7002720485E-02  0.1349123950E-18 -0.8202687181E-02
  0.1200000000E+01  0.1000000000E+01  0.0000000000E+00  0.5798297634E-01  0.6156589308E-19  0.3711074693E-01  0.6472189061E+15  0.5859936962E-01  0.6412016452E-19  0.3670966170E-01
  0.1600000000E+01  0.1000000000E+01  0.4698893521E-01  0.2989135049E+01 -0.8903067014E-16  0.2181806781E+00  0.6472189061E+15  0.2988849872E+01 -0.8902431739E-16  0.2094704060E+00
  0.1553011065E+01  0.1000000000E+01  0.4698893521E-01  0.3457699349E+01 -0.4451852307E-16 -0.2859679979E+00  0.6472189061E+15  0.3459240105E+01 -0.4446010878E-16 -0.2942218110E+00
  0.1457046303E+01  0.1000000000E+01  0.4698893521E-01  0.2459256825E+01 -0.4881409460E-17 -0.9575535365E-01  0.6472189061E+15  0.2462097556E+01 -0.4970881518E-17 -0.1037268472E+00
  0.1342953697E+01  0.1000000000E+01  0.4698893521E-01  0.2438959375E+01  0.2871545696E-16 -0.6699048405E-01  0.6472189061E+15  0.2442036702E+01  0.2873487117E-16 -0.7641728089E-01
  0.1246988935E+01  0.1000000000E+01  0.4698893521E-01  0.1868241098E+01 -0.6993916489E-17 -0.3132594654E-01  0.6472189061E+15  0.1871052309E+01 -0.6860275881E-17 -0.4135324673E-01
  0.1200000000E+01  0.1000000000E+01  0.4698893521E-01  0.2237837923E+01 -0.4632000873E-16 -0.2109589517E+00  0.6472189061E+15  0.2239265465E+01 -0.4641898194E-16 -0.2201529330E+00
  0.1600000000E+01  0.1000000000E+01  0.1429536967E+00  0.6235668001E+01 -0.2670251858E-15 -0.1887576109E+01  0.6472189061E+15  0.6219832483E+01 -0.2670173022E-15 -0.1894756568E+01
  0.1553011065E+01  0.1000000000E+01  0.1429536967E+00  0.7883630177E+01 -0.1446492195E-15 -0.1042406316E+01  0.6472189061E+15  0.7883747854E+01 -0.1447594701E-15 -0.1049538863E+01
  0.1457046303E+01  0.1000000000E+01  0.1429536967E+00  0.5759970917E+01  0.3179021519E-16 -0.9916815020E+00  0.6472189061E+15  0.5765065263E+01  0.3191027784E-16 -0.9996964708E+00
  0.1342953697E+01  0.1000000000E+01  0.1429536967E+00  0.5684998653E+01  0.1009285525E-15 -0.2276925359E+00  0.6472189061E+15  0.5690518883E+01  0.1011391430E-15 -0.2395715014E+00
  0.1246988935E+01  0.1000000000E+01  0.1429536967E+00  0.4330541568E+01  0.2649009768E-16 -0.7412200572E+00  0.6472189061E+15  0.4333742693E+01  0.2646940673E-16 -0.7545388665E+00
  0.1200000000E+01  0.1000000000E+01  0.1429536967E+00  0.5058086982E+01 -0.6326448220E-16 -0.6024510385E+00  0.6472189061E+15  0.5054021359E+01 -0.6319719961E-16 -0.6164304075E+00
  0.1600000000E+01  0.1000000000E+01  0.2570463033E+00  0.1093718442E+02  0.9529688744E-16 -0.3877926502E+01  0.6472189061E+15  0.1094618608E+02  0.9524746603E-16 -0.3873701125E+01
  0.1553011065E+01  0.1000000000E+01  0.2570463033E+00  0.9798402427E+01  0.1194036181E-15 -0.2758884471E+01  0.6472189061E+15  0.9802723150E+01  0.1194092650E-15 -0.2751070988E+01
  0.1457046303E+01  0.1000000000E+01  0.2570463033E+00  0.8336640510E+01  0.1838944261E-15 -0.2539214420E+01  0.6472189061E+15  0.8345022280E+01  0.1842570029E-15 -0.2533569689E+01
  0.1342953697E+01  0.1000000000E+01  0.2570463033E+00  0.6655502167E+01  0.1324365851E-15 -0.1269480917E+01  0.6472189061E+15  0.6666984113E+01  0.1330627101E-15 -0.1267546929E+01
  0.1246988935E+01  0.1000000000E+01  0.2570463033E+00  0.5412253011E+01  0.4055667172E-16 -0.1926025621E+01  0.6472189061E+15  0.5417788649E+01  0.4081280861E-16 -0.1927016193E+01
  0.1200000000E+01  0.1000000000E+01  0.2570463033E+00  0.4992186128E+01 -0.9854777645E-17 -0.1670692066E+01  0.6472189061E+15  0.4994714473E+01 -0.9766920033E-17 -0.1675865043E+01
  0.1600000000E+01  0.1000000000E+01  0.3530110648E+00  0.9227669477E+01  0.1891501890E-15 -0.4535251180E+01  0.6472189061E+15  0.9230664524E+01  0.1890711704E-15 -0.4521230670E+01
  0.1553011065E+01  0.1000000000E+01  0.3530110648E+00  0.9334821767E+01  0.1975409821E-15 -0.4403172371E+01  0.6472189061E+15  0.9340590445E+01  0.1975658230E-15 -0.4391338606E+01
  0.1457046303E+01  0.1000000000E+01  0.3530110648E+00  0.8005720202E+01  0.1937397334E-15 -0.3824883954E+01  0.6472189061E+15  0.8016376437E+01  0.1941424652E-15 -0.3814911672E+01
  0.1342953697E+01  0.1000000000E+01  0.3530110648E+00  0.6659292469E+01  0.1477887248E-15 -0.2818304735E+01  0.6472189061E+15  0.6673527612E+01  0.1481500730E-15 -0.2809081286E+01
  0.1246988935E+01  0.1000000000E+01  0.3530110648E+00  0.5247541912E+01  0.6100414083E-16 -0.2866750981E+01  0.6472189061E+15  0.5257569608E+01  0.6073289361E-16 -0.2859374978E+01
  0.1200000000E+01  0.1000000000E+01  0.3530110648E+00  0.5146664252E+01  0.2781092522E-16 -0.2778960539E+01  0.6472189061E+15  0.5148794572E+01  0.2781935532E-16 -0.2772900994E+01
  0.1600000000E+01  0.1000000000E+01  0.4000000000E+00  0.9325647603E+01  0.1884317977E-15 -0.5342265880E+01  0.6472189061E+15  0.9333029450E+01  0.1883547025E-15 -0.5339997050E+01
  0.1553011065E+01  0.1000000000E+01  0.4000000000E+00  0.8572578499E+01  0.2082274151E-15 -0.4511523984E+01  0.6472189061E+15  0.8581356489E+01  0.2081911266E-15 -0.4507919650E+01
  0.1457046303E+01  0.1000000000E+01  0.4000000000E+00  0.7810173914E+01  0.1853515889E-15 -0.4421629292E+01  0.6472189061E+15  0.7819919481E+01  0.1853643175E-15 -0.4417427768E+01
  0.1342953697E+01  0.1000000000E+01  0.4000000000E+00  0.6315343098E+01  0.1549533618E-15 -0.3241407540E+01  0.6472189061E+15  0.6330897097E+01  0.1557534385E-15 -0.3237066338E+01
  0.1246988935E+01  0.1000000000E+01  0.4000000000E+00  0.5272495892E+01  0.6090984229E-16 -0.3422823456E+01  0.6472189061E+15  0.5282016338E+01  0.6081557877E-16 -0.3415170192E+01
  0.1200000000E+01  0.1000000000E+01  0.4000000000E+00  0.4683133237E+01  0.3335370849E-16 -0.3049472355E+01  0.6472189061E+15  0.4688980026E+01  0.3335703920E-16 -0.3043517343E+01
ZONE I=6, J=6, K=1, F=POINT
  0.2000000000E+01  0.1000000000E+01  0.0000000000E+00  0.2402261007E+01  0.7380228056E-19  0.2123395997E+02  0.6472189061E+15  0.2430142373E+01  0.9445324761E-19  0.2215516065E+02
  0.1953011065E+01  0.1000000000E+01  0.0000000000E+00  0.1291096750E+01 -0.3735057414E-16 -0.1374684307E+00  0.6472189061E+15  0.1295539082E+01 -0.3609735790E-16 -0.1505811138E+00
  0.1857046303E+01  0.1000000000E+01  0.0000000000E+00 -0.3073977931E+00 -0.1885043179E-16  0.1518104701E+00  0.6472189061E+15 -0.3076366124E+00 -0.1931841147E-16  0.1503694274E+00
  0.1742953697E+01  0.1000000000E+01  0.0000000000E+00  0.1337567655E+00  0.2225882824E-18 -0.3747708823E-01  0.6472189061E+15  0.1350303206E+00  0.1171614698E-18 -0.3709010517E-01
  0.1646988935E+01  0.1000000000E+01  0.0000000000E+00 -0.1276927444E+00  0.3343085121E-18  0.6060029407E-01  0.6472189061E+15 -0.1264977670E+00  0.2978032614E-18  0.5981827754E-01
  0.1600000000E+01  0.1000000000E+01  0.0000000000E+00  0.8856535020E-01 -0.9835007034E-18 -0.8410569625E-01  0.6472189061E+15  0.8849757636E-01 -0.1105247142E-17 -0.8212438429E-01
  0.2000000000E+01  0.1000000000E+01  0.4698893521E-01 -0.1212222551E-01  0.7452836137E-18  0.4848224877E+02  0.6472189061E+15 -0.5473019065E-01  0.6857702790E-18  0.4865756348E+02
  0.1953011065E+01  0.1000000000E+01  0.4698893521E-01  0.1096122151E+02  0.1372765444E-15  0.1466840136E+01  0.6472189061E+15  0.1095006517E+02  0.1360667006E-15  0.1485141193E+01
  0.1857046303E+01  0.1000000000E+01  0.4698893521E-01  0.1166840403E+02  0.2917603965E-15 -0.1882978831E+01  0.6472189061E+15  0.1167209852E+02  0.2921587640E-15 -0.1880663568E+01
  0.1742953697E+01  0.1000000000E+01  0.4698893521E-01  0.5791840867E+01 -0.3725972002E-16 -0.6486761317E+00  0.6472189061E+15  0.5798587523E+01 -0.3693281047E-16 -0.6558352394E+00
  0.1646988935E+01  0.1000000000E+01  0.4698893521E-01  0.4463987956E+01 -0.1217171448E-15 -0.6361288225E+00  0.6472189061E+15  0.4465513642E+01 -0.1219859267E-15 -0.6434596345E+00
  0.1600000000E+01  0.1000000000E+01  0.4698893521E-01  0.2825537966E+01 -0.8618714944E-16  0.2039651282E+00  0.6472189061E+15  0.2834803399E+01 -0.8600251120E-16  0.1899602415E+00
  0.2000000000E+01  0.1000000000E+01  0.1429536967E+00 -0.2815354179E+00  0.2727296736E-17  0.5050270621E+02  0.6472189061E+15 -0.2571112064E+00  0.2750286259E-17  0.5043994444E+02
  0.1953011065E+01  0.1000000000E+01  0.1429536967E+00  0.2795822600E+01 -0.5138521617E-15  0.1641995901E+02  0.6472189061E+15  0.2782018158E+01 -0.5137487529E-15  0.1645809446E+02
  0.1857046303E+01  0.1000000000E+01  0.1429536967E+00  0.1274570703E+02 -0.2578775599E-15 -0.3590536619E+01  0.6472189061E+15  0.1274840823E+02 -0.2582827092E-15 -0.3582409357E+01
  0.1742953697E+01  0.1000000000E+01  0.1429536967E+00  0.9984969259E+01 -0.1875350069E-16 -0.4123454702E+01  0.6472189061E+15  0.9996064735E+01 -0.1820434876E-16 -0.4128162932E+01
  0.1646988935E+01  0.1000000000E+01  0.1429536967E+00  0.9259820994E+01 -0.1592430241E-15 -0.2141911277E+01  0.6472189061E+15  0.9264386869E+01 -0.1589283324E-15 -0.2147479062E+01
  0.1600000000E+01  0.1000000000E+01  0.1429536967E+00  0.5864332164E+01 -0.2835867289E-15 -0.1887469698E+01  0.6472189061E+15  0.5889093946E+01 -0.2839039018E-15 -0.1899358195E+01
  0.2000000000E+01  0.1000000000E+01  0.2570463033E+00  0.1909021264E-01  0.1106949136E-17  0.4987246358E+02  0.6472189061E+15  0.1816948045E-01  0.1064334945E-17  0.4987778848E+02