TITLE = "Generated from ../MESH/Convergence_0000000000.hmesh and Convergence_0000006600.hsol"
VARIABLES = "x","y","z","veloT_x","veloT_y","veloT_z","slr_4","velo_x","velo_y","velo_z"
ZONE I=6, J=6, K=1, F=POINT
  0.4000000000E+00  0.1000000000E+01  0.0000000000E+00 -0.1409502416E-01  0.2664164390E-19  0.7625659494E-02  0.6711684995E+15 -0.1181911591E-01  0.2684271539E-19  0.7747173874E-02
  0.3530110648E+00  0.1000000000E+01  0.0000000000E+00 -0.3682818497E-02  0.7429007773E-20 -0.3612864290E-03  0.6711684995E+15 -0.8884007484E-03  0.8005332162E-20 -0.2989920796E-03
  0.2570463033E+00  0.1000000000E+01  0.0000000000E+00 -0.1928938766E-02  0.7396401481E-21  0.2436160247E-02  0.6711684995E+15  0.6338916705E-03  0.1103851961E-20  0.2437647033E-02
  0.1429536967E+00  0.1000000000E+01  0.0000000000E+00 -0.2929359507E-02  0.2222242351E-21 -0.1137425896E-02  0.6711684995E+15 -0.2125835251E-03  0.3508982416E-21 -0.1101444641E-02
  0.4698893521E-01  0.1000000000E+01  0.0000000000E+00  0.1906516550E-03 -0.2880315617E-20  0.2349660799E-02  0.6711684995E+15  0.2339956061E-02 -0.2666764552E-20  0.2072862239E-02
  0.0000000000E+00  0.1000000000E+01  0.0000000000E+00 -0.7782539845E-02  0.1730841514E-22  0.2269800930E-02  0.6711684995E+15 -0.7559450306E-02  0.1676842770E-22  0.2052403870E-02
  0.4000000000E+00  0.1000000000E+01  0.4698893521E-01  0.2660168667E+00  0.3371189788E-17 -0.5150366104E-01  0.6711684995E+15  0.2679175268E+00  0.3360694037E-17 -0.4950682520E-01
  0.3530110648E+00  0.1000000000E+01  0.4698893521E-01  0.1213830509E+00  0.3104153970E-17 -0.1210537644E-01  0.6711684995E+15  0.1251054088E+00  0.3062577328E-17 -0.1046223539E-01
  0.2570463033E+00  0.1000000000E+01  0.4698893521E-01  0.9112049919E-01  0.1300256989E-17 -0.1954215708E-01  0.6711684995E+15  0.9449001497E-01  0.1296390964E-17 -0.1931017297E-01
  0.1429536967E+00  0.1000000000E+01  0.4698893521E-01 -0.5017293365E-02  0.3803191253E-18 -0.9168325169E-02  0.6711684995E+15 -0.1083873715E-02  0.3913634037E-18 -0.8967109337E-02
  0.4698893521E-01  0.1000000000E+01  0.4698893521E-01 -0.8790457921E-02  0.9105958885E-19 -0.3394563866E-02  0.6711684995E+15 -0.4995924371E-02  0.9491991751E-19 -0.5477188440E-02
  0.0000000000E+00  0.1000000000E+01  0.4698893521E-01 -0.1830223637E-01  0.1021053806E-20  0.3976285709E-02  0.6711684995E+15 -0.1812478356E-01  0.1028119045E-20  0.1836683110E-02
  0.4000000000E+00  0.1000000000E+01  0.1429536967E+00  0.6216849225E+00  0.1049200088E-16 -0.1370000639E+00  0.6711684995E+15  0.6233711241E+00  0.1051956934E-16 -0.1401851577E+00
  0.3530110648E+00  0.1000000000E+01  0.1429536967E+00  0.3495007659E+00  0.6826255098E-17 -0.1731238497E+00  0.6711684995E+15  0.3541564753E+00  0.6842976752E-17 -0.1762280868E+00
  0.2570463033E+00  0.1000000000E+01  0.1429536967E+00  0.2357169684E+00  0.3033342952E-17 -0.1090688316E+00  0.6711684995E+15  0.2386437861E+00  0.3033174469E-17 -0.1111405167E+00
  0.1429536967E+00  0.1000000000E+01  0.1429536967E+00  0.2561729712E-01  0.1249059820E-17 -0.1123455675E+00  0.6711684995E+15  0.3060538851E-01  0.1248207715E-17 -0.1139355071E+00
  0.4698893521E-01  0.1000000000E+01  0.1429536967E+00 -0.1713155046E-01  0.3079183705E-18 -0.1644469393E-02  0.6711684995E+15 -0.1045082012E-01  0.3236541721E-18 -0.5157873382E-02
  0.0000000000E+00  0.1000000000E+01  0.1429536967E+00 -0.2133398515E-01  0.2796240459E-21  0.6842747997E-03  0.6711684995E+15 -0.2137220304E-01  0.3658357509E-21 -0.2058656866E-02
  0.4000000000E+00  0.1000000000E+01  0.2570463033E+00  0.7711331986E+00  0.5167001901E-17 -0.4349160998E+00  0.6711684995E+15  0.7700847801E+00  0.5164914839E-17 -0.4449959655E+00
  0.3530110648E+00  0.1000000000E+01  0.2570463033E+00  0.5690479265E+00  0.4104381494E-17 -0.4689186389E+00  0.6711684995E+15  0.5718898235E+00  0.3982433089E-17 -0.4775658382E+00
  0.2570463033E+00  0.1000000000E+01  0.2570463033E+00  0.3396975219E+00  0.2942192170E-17 -0.3250053912E+00  0.6711684995E+15  0.3406144132E+00  0.2944492899E-17 -0.3321777529E+00
  0.1429536967E+00  0.1000000000E+01  0.2570463033E+00  0.8424107004E-01  0.2024344735E-17 -0.2884813140E+00  0.6711684995E+15  0.8923954089E-01  0.2025790697E-17 -0.2934217801E+00
  0.4698893521E-01  0.1000000000E+01  0.2570463033E+00 -0.5062046679E-02  0.1308899250E-17 -0.4366972339E-01  0.6711684995E+15  0.3074040578E-02  0.1245888945E-17 -0.4851569646E-01
  0.0000000000E+00  0.1000000000E+01  0.2570463033E+00 -0.1421239418E-01 -0.4499624999E-20  0.4703459050E-03  0.6711684995E+15 -0.1413585224E-01 -0.4412157902E-20 -0.2424428933E-02
  0.4000000000E+00  0.1000000000E+01  0.3530110648E+00  0.8534179171E+00  0.5568731465E-17 -0.7670434818E+00  0.6711684995E+15  0.8465024612E+00  0.5573416773E-17 -0.7819096271E+00
  0.3530110648E+00  0.1000000000E+01  0.3530110648E+00  0.6327813054E+00  0.4891546107E-17 -0.7554519718E+00  0.6711684995E+15  0.6347655633E+00  0.4885782439E-17 -0.7693351130E+00
  0.2570463033E+00  0.1000000000E+01  0.3530110648E+00  0.3772425357E+00  0.2679083658E-17 -0.5648440793E+00  0.6711684995E+15  0.3760713538E+00  0.2864881165E-17 -0.5778090470E+00
  0.1429536967E+00  0.1000000000E+01  0.3530110648E+00  0.9395473937E-01  0.2378148270E-17 -0.4416642027E+00  0.6711684995E+15  0.9636199616E-01  0.2443435732E-17 -0.4492249405E+00
  0.4698893521E-01  0.1000000000E+01  0.3530110648E+00 -0.5746119802E-02  0.6685907061E-18 -0.1086673277E+00  0.6711684995E+15  0.3626165643E-02  0.7276698760E-18 -0.1152512716E+00
  0.0000000000E+00  0.1000000000E+01  0.3530110648E+00 -0.1432892909E-01  0.6002928892E-20  0.1041334006E-03  0.6711684995E+15 -0.1425865665E-01  0.5443848293E-20 -0.3347423818E-02
  0.4000000000E+00  0.1000000000E+01  0.4000000000E+00  0.8534083294E+00  0.7422226551E-17 -0.9387413937E+00  0.6711684995E+15  0.8464214038E+00  0.7411261415E-17 -0.9591690136E+00
  0.3530110648E+00  0.1000000000E+01  0.4000000000E+00  0.6799597402E+00  0.6367481208E-17 -0.9117043069E+00  0.6711684995E+15  0.6819472617E+00  0.6422548112E-17 -0.9329733620E+00
  0.2570463033E+00  0.1000000000E+01  0.4000000000E+00  0.3895887910E+00  0.2808316522E-17 -0.6891841980E+00  0.6711684995E+15  0.3860758678E+00  0.2739962632E-17 -0.7048123484E+00
  0.1429536967E+00  0.1000000000E+01  0.4000000000E+00  0.1069877593E+00  0.2545975115E-17 -0.5207776406E+00  0.6711684995E+15  0.1073376166E+00  0.2454293308E-17 -0.5292261970E+00
  0.4698893521E-01  0.1000000000E+01  0.4000000000E+00 -0.9624822881E-02  0.6608288095E-18 -0.1404343714E+00  0.6711684995E+15  0.2190411710E-03  0.6910413080E-18 -0.1470398771E+00
  0.0000000000E+00  0.1000000000E+01  0.4000000000E+00 -0.6809570377E-02  0.8711200279E-20 -0.1751178778E-02  0.6711684995E+15 -0.6807296658E-02  0.8372429993E-20 -0.4790478849E-02
ZONE I=6, J=6, K=1, F=POINT
  0.8000000000E+00  0.1000000000E+01  0.0000000000E+00  0.1419225737E-01 -0.8623156438E-19 -0.1183665878E-01  0.6711684995E+15  0.1592719461E-01 -0.8949799283E-19 -0.1155646729E-01
  0.7530110648E+00  0.1000000000E+01  0.0000000000E+00 -0.1788240460E-02 -0.9157241552E-20  0.5957371463E-02  0.6711684995E+15  0.4432833595E-03  0.3996106440E-19  0.6072880653E-02
  0.6570463033E+00  0.1000000000E+01  0.0000000000E+00 -0.3856840870E-02 -0.2337732133E-19  0.4350875369E-03  0.6711684995E+15 -0.1672981796E-02  0.6003090598E-20  0.4637633849E-03
  0.5429536967E+00  0.1000000000E+01  0.0000000000E+00 -0.1945744916E-02 -0.4671615602E-19  0.7262520840E-02  0.6711684995E+15  0.1003834360E-03  0.8238935972E-20  0.7362156928E-02
  0.4469889352E+00  0.1000000000E+01  0.0000000000E+00 -0.4118205484E-02 -0.1077094174E-18  0.7104081685E-03  0.6711684995E+15 -0.2002281071E-02 -0.4026579973E-19  0.8211329143E-03
  0.4000000000E+00  0.1000000000E+01  0.0000000000E+00  0.1306102092E-01  0.3037621752E-19  0.7326329435E-02  0.6711684995E+15  0.1497413705E-01  0.3051846824E-19  0.7418406481E-02
  0.8000000000E+00  0.1000000000E+01  0.4698893521E-01  0.3816397757E+00 -0.2265104874E-16  0.1235233921E-01  0.6711684995E+15  0.3795863794E+00 -0.2261809919E-16  0.1013709428E-01
  0.7530110648E+00  0.1000000000E+01  0.4698893521E-01  0.5701056612E+00 -0.2191343731E-16 -0.4898284327E-01  0.6711684995E+15  0.5685331508E+00 -0.2182378722E-16 -0.5001361916E-01
  0.6570463033E+00  0.1000000000E+01  0.4698893521E-01  0.3342736108E+00 -0.4016108050E-17 -0.2557044694E-01  0.6711684995E+15  0.3343708510E+00 -0.4014615269E-17 -0.2519455591E-01
  0.5429536967E+00  0.1000000000E+01  0.4698893521E-01  0.3480849684E+00  0.4598757679E-17 -0.1649596010E-01  0.6711684995E+15  0.3486053313E+00  0.4607551541E-17 -0.1712421377E-01
  0.4469889352E+00  0.1000000000E+01  0.4698893521E-01  0.2087466662E+00  0.4338578421E-17 -0.8458878661E-02  0.6711684995E+15  0.2094424765E+00  0.4333106434E-17 -0.7149090732E-02
  0.4000000000E+00  0.1000000000E+01  0.4698893521E-01  0.3084543355E+00  0.3128261861E-17 -0.5226604811E-01  0.6711684995E+15  0.3100699027E+00  0.3119285415E-17 -0.5025916839E-01
  0.8000000000E+00  0.1000000000E+01  0.1429536967E+00  0.1250051449E+01 -0.5132903050E-16 -0.3861857815E+00  0.6711684995E+15  0.1246885278E+01 -0.5139398650E-16 -0.3893159743E+00
  0.7530110648E+00  0.1000000000E+01  0.1429536967E+00  0.1526946198E+01 -0.3157835645E-16 -0.2419543667E+00  0.6711684995E+15  0.1522606892E+01 -0.3153375328E-16 -0.2446005097E+00
  0.6570463033E+00  0.1000000000E+01  0.1429536967E+00  0.1031834748E+01 -0.1728047531E-17 -0.2362021002E+00  0.6711684995E+15  0.1031914040E+01 -0.1731650851E-17 -0.2381212822E+00
  0.5429536967E+00  0.1000000000E+01  0.1429536967E+00  0.9064540138E+00  0.1057719256E-16 -0.8574370527E-01  0.6711684995E+15  0.9074481393E+00  0.1060457081E-16 -0.8852339524E-01
  0.4469889352E+00  0.1000000000E+01  0.1429536967E+00  0.5703281591E+00  0.1061095978E-16 -0.1625659672E+00  0.6711684995E+15  0.5696675574E+00  0.1063077658E-16 -0.1659095852E+00
  0.4000000000E+00  0.1000000000E+01  0.1429536967E+00  0.6732985837E+00  0.1120306662E-16 -0.1364520322E+00  0.6711684995E+15  0.6752299604E+00  0.1123570217E-16 -0.1396332689E+00
  0.8000000000E+00  0.1000000000E+01  0.2570463033E+00  0.2444358503E+01 -0.9513160822E-17 -0.1023873728E+01  0.6711684995E+15  0.2441937360E+01 -0.9529336745E-17 -0.1028294991E+01
  0.7530110648E+00  0.1000000000E+01  0.2570463033E+00  0.2274148464E+01 -0.5881270489E-17 -0.7652556237E+00  0.6711684995E+15  0.2272685795E+01 -0.5956855255E-17 -0.7710671166E+00
  0.6570463033E+00  0.1000000000E+01  0.2570463033E+00  0.1713139572E+01 -0.8997107764E-18 -0.6879206887E+00  0.6711684995E+15  0.1716892054E+01 -0.9949175544E-18 -0.7008014447E+00
  0.5429536967E+00  0.1000000000E+01  0.2570463033E+00  0.1273848061E+01  0.4546426494E-17 -0.4117270058E+00  0.6711684995E+15  0.1275486041E+01  0.4579548412E-17 -0.4289973348E+00
  0.4469889352E+00  0.1000000000E+01  0.2570463033E+00  0.8770225337E+00  0.5356660153E-17 -0.4941622039E+00  0.6711684995E+15  0.8736662782E+00  0.5189750631E-17 -0.5074106452E+00
  0.4000000000E+00  0.1000000000E+01  0.2570463033E+00  0.8018120345E+00  0.5192278269E-17 -0.4342498386E+00  0.6711684995E+15  0.8005847981E+00  0.5190056337E-17 -0.4443869245E+00
  0.8000000000E+00  0.1000000000E+01  0.3530110648E+00  0.2814237185E+01  0.4772613715E-17 -0.1613144114E+01  0.6711684995E+15  0.2810505152E+01  0.4774661363E-17 -0.1624316069E+01
  0.7530110648E+00  0.1000000000E+01  0.3530110648E+00  0.2651285975E+01  0.9081175700E-17 -0.1385376081E+01  0.6711684995E+15  0.2654883542E+01  0.9257468822E-17 -0.1396463731E+01
  0.6570463033E+00  0.1000000000E+01  0.3530110648E+00  0.2022010304E+01  0.1510790886E-17 -0.1186283937E+01  0.6711684995E+15  0.2034010224E+01  0.1337986861E-17 -0.1201940723E+01
  0.5429536967E+00  0.1000000000E+01  0.3530110648E+00  0.1469056833E+01  0.1261520039E-17 -0.8507565493E+00  0.6711684995E+15  0.1469772760E+01  0.1386927074E-17 -0.8704218506E+00
  0.4469889352E+00  0.1000000000E+01  0.3530110648E+00  0.9578743046E+00  0.5346572603E-17 -0.8395868974E+00  0.6711684995E+15  0.9466813037E+00  0.5462984613E-17 -0.8562414117E+00
  0.4000000000E+00  0.1000000000E+01  0.3530110648E+00  0.8866755921E+00  0.5549146064E-17 -0.7668529023E+00  0.6711684995E+15  0.8795633960E+00  0.5554358940E-17 -0.7817126584E+00
  0.8000000000E+00  0.1000000000E+01  0.4000000000E+00  0.2972443354E+01 -0.1930535161E-17 -0.1961685287E+01  0.6711684995E+15  0.2967010754E+01 -0.1933675682E-17 -0.1980055742E+01
  0.7530110648E+00  0.1000000000E+01  0.4000000000E+00  0.2674980289E+01  0.1060661535E-17 -0.1673808036E+01  0.6711684995E+15  0.2677729686E+01  0.1141967084E-17 -0.1688734788E+01
  0.6570463033E+00  0.1000000000E+01  0.4000000000E+00  0.2086235567E+01  0.2266231524E-17 -0.1463255296E+01  0.6711684995E+15  0.2098088606E+01  0.2290209967E-17 -0.1469079700E+01
  0.5429536967E+00  0.1000000000E+01  0.4000000000E+00  0.1488193460E+01  0.7767273484E-17 -0.1128293662E+01  0.6711684995E+15  0.1489887014E+01  0.7825905077E-17 -0.1131514426E+01
  0.4469889352E+00  0.1000000000E+01  0.4000000000E+00  0.1026318479E+01  0.7674947668E-17 -0.1044595052E+01  0.6711684995E+15  0.1016790165E+01  0.7456118099E-17 -0.1058758101E+01
  0.4000000000E+00  0.1000000000E+01  0.4000000000E+00  0.8650076315E+00  0.7444638892E-17 -0.9380191310E+00  0.6711684995E+15  0.8586772368E+00  0.7436041773E-17 -0.9584589123E+00
ZONE I=6, J=6, K=1, F=POINT
  0.1200000000E+01  0.1000000000E+01  0.0000000000E+00 -0.3601486166E-01  0.5692727390E-19  0.3733936969E-01  0.6711684995E+15 -0.3554271824E-01  0.5766262253E-19  0.3712323112E-01
  0.1153011065E+01  0.1000000000E+01  0.0000000000E+00 -0.8604382861E-02 -0.3872390247E-18 -0.9536979592E-02  0.6711684995E+15 -0.8398161657E-02 -0.3916368754E-18 -0.9400146213E-02
  0.1057046303E+01  0.1000000000E+01  0.0000000000E+00 -0.1332710388E-02 -0.7096527473E-19  0.5792162704E-02  0.6711684995E+15 -0.5402275618E-03 -0.5027761068E-19  0.5909828964E-02
  0.9429536967E+00  0.1000000000E+01  0.0000000000E+00 -0.5858600852E-02  0.5798426231E-21 -0.8311829026E-02  0.6711684995E+15 -0.4608706428E-02 -0.1721057348E-20 -0.8252825126E-02
  0.8469889352E+00  0.1000000000E+01  0.0000000000E+00 -0.1250414666E-03 -0.2339732188E-19  0.5311422206E-02  0.6711684995E+15  0.1283651414E-02 -0.2473444921E-19  0.5429521721E-02
  0.8000000000E+00  0.1000000000E+01  0.0000000000E+00 -0.3103855534E-01 -0.9610230368E-19 -0.1130441100E-01  0.6711684995E+15 -0.2924358317E-01 -0.9952028609E-19 -0.1100940716E-01
  0.1200000000E+01  0.1000000000E+01  0.4698893521E-01  0.2313433143E+01 -0.4174588741E-16 -0.2177406516E+00  0.6711684995E+15  0.2307840960E+01 -0.4147707830E-16 -0.2247329299E+00
  0.1153011065E+01  0.1000000000E+01  0.4698893521E-01  0.1615943958E+01 -0.2555241646E-16 -0.7084300851E-01  0.6711684995E+15  0.1610063020E+01 -0.2536402170E-16 -0.7696624522E-01
  0.1057046303E+01  0.1000000000E+01  0.4698893521E-01  0.1464210907E+01 -0.1152488181E-16 -0.1026784885E+00  0.6711684995E+15  0.1459139684E+01 -0.1159011287E-16 -0.1067366730E+00
  0.9429536967E+00  0.1000000000E+01  0.4698893521E-01  0.8345650359E+00 -0.1358420659E-16 -0.8680784354E-01  0.6711684995E+15  0.8310956823E+00 -0.1348624953E-16 -0.8799331691E-01
  0.8469889352E+00  0.1000000000E+01  0.4698893521E-01  0.7173845122E+00 -0.2643120286E-16 -0.7628003305E-01  0.6711684995E+15  0.7153632469E+00 -0.2634068245E-16 -0.7799385171E-01
  0.8000000000E+00  0.1000000000E+01  0.4698893521E-01  0.3207784562E+00 -0.2195391201E-16  0.1441650637E-01  0.6711684995E+15  0.3191805812E+00 -0.2192928451E-16  0.1214943076E-01
  0.1200000000E+01  0.1000000000E+01  0.1429536967E+00  0.5431957874E+01 -0.5786451548E-16 -0.6446823196E+00  0.6711684995E+15  0.5426260690E+01 -0.5758696558E-16 -0.6614105569E+00
  0.1153011065E+01  0.1000000000E+01  0.1429536967E+00  0.3961465623E+01 -0.6680941654E-16 -0.8564339999E+00  0.6711684995E+15  0.3953074638E+01 -0.6722642508E-16 -0.8706525201E+00
  0.1057046303E+01  0.1000000000E+01  0.1429536967E+00  0.3540000021E+01 -0.3603013704E-16 -0.6462344387E+00  0.6711684995E+15  0.3530826022E+01 -0.3602424653E-16 -0.6554558143E+00
  0.9429536967E+00  0.1000000000E+01  0.1429536967E+00  0.2224557386E+01 -0.3155535377E-16 -0.7558819073E+00  0.6711684995E+15  0.2219295654E+01 -0.3154747401E-16 -0.7598398842E+00
  0.8469889352E+00  0.1000000000E+01  0.1429536967E+00  0.1896238381E+01 -0.4734879721E-16 -0.4049216583E+00  0.6711684995E+15  0.1895482112E+01 -0.4731984619E-16 -0.4079428213E+00
  0.8000000000E+00  0.1000000000E+01  0.1429536967E+00  0.1166667884E+01 -0.5353620433E-16 -0.3878512752E+00  0.6711684995E+15  0.1165541305E+01 -0.5360984246E-16 -0.3909458411E+00
  0.1200000000E+01  0.1000000000E+01  0.2570463033E+00  0.5948882103E+01 -0.6692662902E-17 -0.1778084832E+01  0.6711684995E+15  0.5933128686E+01 -0.6622939040E-17 -0.1802250378E+01
  0.1153011065E+01  0.1000000000E+01  0.2570463033E+00  0.5395810336E+01 -0.3624093826E-16 -0.2041622196E+01  0.6711684995E+15  0.5379080046E+01 -0.3472109160E-16 -0.2063738919E+01
  0.1057046303E+01  0.1000000000E+01  0.2570463033E+00  0.4507167851E+01 -0.2866444096E-16 -0.1669454257E+01  0.6711684995E+15  0.4490909107E+01 -0.2869408104E-16 -0.1682927883E+01
  0.9429536967E+00  0.1000000000E+01  0.2570463033E+00  0.3457936392E+01 -0.2646514677E-16 -0.1726020963E+01  0.6711684995E+15  0.3448827296E+01 -0.2595969948E-16 -0.1733648750E+01
  0.8469889352E+00  0.1000000000E+01  0.2570463033E+00  0.2840406729E+01 -0.1078033129E-16 -0.1097266459E+01  0.6711684995E+15  0.2838610664E+01 -0.1091776767E-16 -0.1102481887E+01
  0.8000000000E+00  0.1000000000E+01  0.2570463033E+00  0.2407543475E+01 -0.9673795128E-17 -0.1026533269E+01  0.6711684995E+15  0.2405550569E+01 -0.9668811858E-17 -0.1030510491E+01
  0.1200000000E+01  0.1000000000E+01  0.3530110648E+00  0.6429825669E+01  0.3004782518E-16 -0.2966455571E+01  0.6711684995E+15  0.6413911962E+01  0.3008760211E-16 -0.2989936479E+01
  0.1153011065E+01  0.1000000000E+01  0.3530110648E+00  0.5683018348E+01  0.1231514460E-16 -0.2923072232E+01  0.6711684995E+15  0.5658783117E+01  0.1263695633E-16 -0.2944623519E+01
  0.1057046303E+01  0.1000000000E+01  0.3530110648E+00  0.4890119283E+01 -0.6749927555E-17 -0.2591735290E+01  0.6711684995E+15  0.4867012467E+01 -0.6501324433E-17 -0.2607084892E+01
  0.9429536967E+00  0.1000000000E+01  0.3530110648E+00  0.3850252355E+01 -0.1224616084E-16 -0.2405619755E+01  0.6711684995E+15  0.3839281488E+01 -0.1176082152E-16 -0.2418090163E+01
  0.8469889352E+00  0.1000000000E+01  0.3530110648E+00  0.3293278925E+01  0.1721520680E-17 -0.1800663311E+01  0.6711684995E+15  0.3289520818E+01  0.1709404914E-17 -0.1812951464E+01
  0.8000000000E+00  0.1000000000E+01  0.3530110648E+00  0.2767333105E+01  0.4824213853E-17 -0.1613474537E+01  0.6711684995E+15  0.2764853096E+01  0.4842403199E-17 -0.1624651756E+01
  0.1200000000E+01  0.1000000000E+01  0.4000000000E+00  0.6231309638E+01  0.3374827865E-16 -0.3306072335E+01  0.6711684995E+15  0.6212734124E+01  0.3376706212E-16 -0.3320154548E+01
  0.1153011065E+01  0.1000000000E+01  0.4000000000E+00  0.5841784350E+01  0.2647539118E-16 -0.3457137596E+01  0.6711684995E+15  0.5815498936E+01  0.2595589600E-16 -0.3470232985E+01
  0.1057046303E+01  0.1000000000E+01  0.4000000000E+00  0.4904633158E+01  0.3158733957E-17 -0.3013259266E+01  0.6711684995E+15  0.4880562950E+01  0.2792862882E-17 -0.3027879304E+01
  0.9429536967E+00  0.1000000000E+01  0.4000000000E+00  0.3981769070E+01 -0.1229782449E-16 -0.2806562766E+01  0.6711684995E+15  0.3970987574E+01 -0.1225930751E-16 -0.2823072559E+01
  0.8469889352E+00  0.1000000000E+01  0.4000000000E+00  0.3305624039E+01 -0.6705214312E-17 -0.2116151257E+01  0.6711684995E+15  0.3302010079E+01 -0.6677542689E-17 -0.2135205855E+01
  0.8000000000E+00  0.1000000000E+01  0.4000000000E+00  0.2968713973E+01 -0.1911993423E-17 -0.1965178743E+01  0.6711684995E+15  0.2963361065E+01 -0.1913129622E-17 -0.1983104788E+01
ZONE I=6, J=6, K=1, F=POINT
  0.1600000000E+01  0.1000000000E+01  0.0000000000E+00  0.1280982161E+00 -0.9366997770E-18 -0.7178975690E-01  0.6711684995E+15  0.1241924040E+00 -0.1055004514E-17 -0.7076649977E-01
  0.1553011065E+01  0.1000000000E+01  0.0000000000E+00  0.7753237006E-02 -0.1192712087E-17  0.4515341024E-01  0.6711684995E+15  0.4746419956E-02 -0.1065274539E-17  0.4528356853E-01
  0.1457046303E+01  0.1000000000E+01  0.0000000000E+00 -0.1051294012E-01 -0.2279679017E-19 -0.3232024250E-02  0.6711684995E+15 -0.1227615923E-01 -0.1202914876E-20 -0.3140132701E-02
  0.1342953697E+01  0.1000000000E+01  0.0000000000E+00  0.1451015103E-02  0.1917882048E-18  0.2970033788E-01  0.6711684995E+15  0.9467091535E-03  0.1646240321E-18  0.2974034117E-01
  0.1246988935E+01  0.1000000000E+01  0.0000000000E+00 -0.1149247859E-01  0.1080280181E-18 -0.8126642881E-02  0.6711684995E+15 -0.1138054349E-01  0.1230337388E-18 -0.7978478171E-02
  0.1200000000E+01  0.1000000000E+01  0.0000000000E+00  0.5414325545E-01  0.6035584055E-19  0.3736969483E-01  0.6711684995E+15  0.5443380026E-01  0.6093963771E-19  0.3714488497E-01
  0.1600000000E+01  0.1000000000E+01  0.4698893521E-01  0.2996100422E+01 -0.8754047243E-16  0.2133747164E+00  0.6711684995E+15  0.2980491035E+01 -0.8719693726E-16  0.2111659307E+00
  0.1553011065E+01  0.1000000000E+01  0.4698893521E-01  0.3517835325E+01 -0.4357089512E-16 -0.2876344137E+00  0.6711684995E+15  0.3507458485E+01 -0.4387930174E-16 -0.2911346095E+00
  0.1457046303E+01  0.1000000000E+01  0.4698893521E-01  0.2590825662E+01 -0.4377822683E-17 -0.9486069195E-01  0.6711684995E+15  0.2582560380E+01 -0.4140932793E-17 -0.1041278327E+00
  0.1342953697E+01  0.1000000000E+01  0.4698893521E-01  0.2622475290E+01  0.2834292153E-16 -0.7104641238E-01  0.6711684995E+15  0.2614240211E+01  0.2826285144E-16 -0.8074154577E-01
  0.1246988935E+01  0.1000000000E+01  0.4698893521E-01  0.2047726487E+01 -0.7410942703E-17 -0.4342626712E-01  0.6711684995E+15  0.2041282355E+01 -0.7661871989E-17 -0.5127918750E-01
  0.1200000000E+01  0.1000000000E+01  0.4698893521E-01  0.2412458659E+01 -0.4598071549E-16 -0.2234491707E+00  0.6711684995E+15  0.2405038343E+01 -0.4569390560E-16 -0.2300461348E+00
  0.1600000000E+01  0.1000000000E+01  0.1429536967E+00  0.6452751068E+01 -0.2674724463E-15 -0.1721809029E+01  0.6711684995E+15  0.6416947946E+01 -0.2685144736E-15 -0.1744708015E+01
  0.1553011065E+01  0.1000000000E+01  0.1429536967E+00  0.8185748135E+01 -0.1420625341E-15 -0.8867271921E+00  0.6711684995E+15  0.8177751205E+01 -0.1418396651E-15 -0.9078677543E+00
  0.1457046303E+01  0.1000000000E+01  0.1429536967E+00  0.6220811923E+01  0.2920538497E-16 -0.8811272388E+00  0.6711684995E+15  0.6215722537E+01  0.2869508657E-16 -0.9027328046E+00
  0.1342953697E+01  0.1000000000E+01  0.1429536967E+00  0.6247276114E+01  0.9899819055E-16 -0.1955012219E+00  0.6711684995E+15  0.6236993188E+01  0.9862818767E-16 -0.2164236647E+00
  0.1246988935E+01  0.1000000000E+01  0.1429536967E+00  0.4887613511E+01  0.2646735181E-16 -0.7696188555E+00  0.6711684995E+15  0.4879504814E+01  0.2732056364E-16 -0.7879673247E+00
  0.1200000000E+01  0.1000000000E+01  0.1429536967E+00  0.5599817016E+01 -0.6203746070E-16 -0.6390594141E+00  0.6711684995E+15  0.5582940363E+01 -0.6165718012E-16 -0.6565803255E+00
  0.1600000000E+01  0.1000000000E+01  0.2570463033E+00  0.1155465320E+02  0.1030904866E-15 -0.3409175822E+01  0.6711684995E+15  0.1153685622E+02  0.1029439261E-15 -0.3444908400E+01
  0.1553011065E+01  0.1000000000E+01  0.2570463033E+00  0.1052285294E+02  0.1250856489E-15 -0.2329191721E+01  0.6711684995E+15  0.1051404095E+02  0.1245256887E-15 -0.2358659737E+01
  0.1457046303E+01  0.1000000000E+01  0.2570463033E+00  0.9248376181E+01  0.1800580654E-15 -0.2246800606E+01  0.6711684995E+15  0.9242265224E+01  0.1796189518E-15 -0.2274213136E+01
  0.1342953697E+01  0.1000000000E+01  0.2570463033E+00  0.7680045914E+01  0.1281658208E-15 -0.1193364742E+01  0.6711684995E+15  0.7670841968E+01  0.1276397889E-15 -0.1220680052E+01
  0.1246988935E+01  0.1000000000E+01  0.2570463033E+00  0.6432505590E+01  0.4052340601E-16 -0.1993520199E+01  0.6711684995E+15  0.6421212278E+01  0.3962968442E-16 -0.2019090796E+01
  0.1200000000E+01  0.1000000000E+01  0.2570463033E+00  0.5989693385E+01 -0.6968021544E-17 -0.1768223786E+01  0.6711684995E+15  0.5973291282E+01 -0.6869663465E-17 -0.1795318846E+01
  0.1600000000E+01  0.1000000000E+01  0.3530110648E+00  0.1018194521E+02  0.2070199351E-15 -0.3779869070E+01  0.6711684995E+15  0.1015556076E+02  0.2069982539E-15 -0.3811050302E+01
  0.1553011065E+01  0.1000000000E+01  0.3530110648E+00  0.1041175792E+02  0.2080556401E-15 -0.3720552169E+01  0.6711684995E+15  0.1040141013E+02  0.2079477686E-15 -0.3753628680E+01
  0.1457046303E+01  0.1000000000E+01  0.3530110648E+00  0.9287588868E+01  0.1905118849E-15 -0.3384224582E+01  0.6711684995E+15  0.9281505494E+01  0.1905417910E-15 -0.3417055962E+01
  0.1342953697E+01  0.1000000000E+01  0.3530110648E+00  0.8057874004E+01  0.1424676560E-15 -0.2719861399E+01  0.6711684995E+15  0.8047376005E+01  0.1423970255E-15 -0.2749310993E+01
  0.1246988935E+01  0.1000000000E+01  0.3530110648E+00  0.6638661775E+01  0.6008714808E-16 -0.2994633306E+01  0.6711684995E+15  0.6625297189E+01  0.6080747126E-16 -0.3018942066E+01
  0.1200000000E+01  0.1000000000E+01  0.3530110648E+00  0.6508269811E+01  0.3017098798E-16 -0.2966717687E+01  0.6711684995E+15  0.6487864607E+01  0.3017368766E-16 -0.2989985519E+01
  0.1600000000E+01  0.1000000000E+01  0.4000000000E+00  0.1042173492E+02  0.2080892851E-15 -0.4411216623E+01  0.6711684995E+15  0.1040326431E+02  0.2080055740E-15 -0.4459994127E+01
  0.1553011065E+01  0.1000000000E+01  0.4000000000E+00  0.9800997306E+01  0.2191617809E-15 -0.3681877495E+01  0.6711684995E+15  0.9792437371E+01  0.2196556577E-15 -0.3728945308E+01
  0.1457046303E+01  0.1000000000E+01  0.4000000000E+00  0.9256126988E+01  0.1842159189E-15 -0.3895860659E+01  0.6711684995E+15  0.9246881896E+01  0.1841850608E-15 -0.3934493751E+01
  0.1342953697E+01  0.1000000000E+01  0.4000000000E+00  0.7881224252E+01  0.1472631793E-15 -0.3130899141E+01  0.6711684995E+15  0.7868807493E+01  0.1462529230E-15 -0.3159907695E+01
  0.1246988935E+01  0.1000000000E+01  0.4000000000E+00  0.6828516866E+01  0.5808885915E-16 -0.3584668341E+01  0.6711684995E+15  0.6810893509E+01  0.5833192831E-16 -0.3601846257E+01
  0.1200000000E+01  0.1000000000E+01  0.4000000000E+00  0.6204449844E+01  0.3400966972E-16 -0.3293628692E+01  0.6711684995E+15  0.6187737353E+01  0.3399989831E-16 -0.3310670262E+01
ZONE I=6, J=6, K=1, F=POINT
  0.2000000000E+01  0.1000000000E+01  0.0000000000E+00  0.2402031282E+01  0.7321234806E-19  0.2123391188E+02  0.6711684995E+15  0.2429094885E+01  0.9267845171E-19  0.2215432568E+02
  0.1953011065E+01  0.1000000000E+01  0.0000000000E+00  0.1291413317E+01 -0.3729387459E-16 -0.1374979734E+00  0.6711684995E+15  0.1289543909E+01 -0.3591997481E-16 -0.1514866862E+00
  0.1857046303E+01  0.1000000000E+01  0.0000000000E+00 -0.3076332746E+00 -0.1885691449E-16  0.1518083797E+00  0.6711684995E+15 -0.3149373317E+00 -0.1972641514E-16  0.1505618981E+00
  0.1742953697E+01  0.1000000000E+01  0.0000000000E+00  0.1327399784E+00  0.2099445522E-18 -0.3719084190E-01  0.6711684995E+15  0.1282819850E+00  0.7613180726E-19 -0.3694501712E-01
  0.1646988935E+01  0.1000000000E+01  0.0000000000E+00 -0.1295059718E+00  0.3191732337E-18  0.6047981618E-01  0.6711684995E+15 -0.1338171904E+00  0.3004644131E-18  0.5991208720E-01
  0.1600000000E+01  0.1000000000E+01  0.0000000000E+00  0.8591493699E-01 -0.1016419274E-17 -0.8385224793E-01  0.6711684995E+15  0.8237795546E-01 -0.1135044770E-17 -0.8144678350E-01
  0.2000000000E+01  0.1000000000E+01  0.4698893521E-01 -0.1249468498E-01  0.7528537472E-18  0.4848216526E+02  0.6711684995E+15 -0.5635439099E-01  0.6876157190E-18  0.4865098583E+02
  0.1953011065E+01  0.1000000000E+01  0.4698893521E-01  0.1096387584E+02  0.1353740457E-15  0.1467607268E+01  0.6711684995E+15  0.1093371538E+02  0.1340094269E-15  0.1466994344E+01
  0.1857046303E+01  0.1000000000E+01  0.4698893521E-01  0.1160661959E+02  0.2867308729E-15 -0.1897729643E+01  0.6711684995E+15  0.1158887189E+02  0.2856074694E-15 -0.1913203864E+01
  0.1742953697E+01  0.1000000000E+01  0.4698893521E-01  0.5703712328E+01 -0.4312734569E-16 -0.6497878755E+00  0.6711684995E+15  0.5689337899E+01 -0.4272386220E-16 -0.6696858514E+00
  0.1646988935E+01  0.1000000000E+01  0.4698893521E-01  0.4447094180E+01 -0.1220946146E-15 -0.6415497757E+00  0.6711684995E+15  0.4424743338E+01 -0.1211103143E-15 -0.6471551946E+00
  0.1600000000E+01  0.1000000000E+01  0.4698893521E-01  0.2831210956E+01 -0.8467922948E-16  0.1992548975E+00  0.6711684995E+15  0.2825322935E+01 -0.8416945708E-16  0.1917344381E+00
  0.2000000000E+01  0.1000000000E+01  0.1429536967E+00 -0.2822329519E+00  0.2712658985E-17  0.5050167300E+02  0.6711684995E+15 -0.2577518081E+00  0.2748603923E-17  0.5043133482E+02
  0.1953011065E+01  0.1000000000E+01  0.1429536967E+00  0.2785856754E+01 -0.5100513120E-15  0.1635443234E+02  0.6711684995E+15  0.2754927140E+01 -0.5114868696E-15  0.1636754189E+02
  0.1857046303E+01  0.1000000000E+01  0.1429536967E+00  0.1266852131E+02 -0.2646896798E-15 -0.3661229663E+01  0.6711684995E+15  0.1265391049E+02 -0.2640434316E-15 -0.3685852884E+01
  0.1742953697E+01  0.1000000000E+01  0.1429536967E+00  0.9962388236E+01 -0.3274465422E-16 -0.4034796586E+01  0.6711684995E+15  0.9941871351E+01 -0.3527406746E-16 -0.4075978359E+01
  0.1646988935E+01  0.1000000000E+01  0.1429536967E+00  0.9399496406E+01 -0.1620075433E-15 -0.1987288792E+01  0.6711684995E+15  0.9361828816E+01 -0.1618258040E-15 -0.2014649824E+01
  0.1600000000E+01  0.1000000000E+01  0.1429536967E+00  0.6080016132E+01 -0.2840695642E-15 -0.1722130844E+01  0.6711684995E+15  0.6085627044E+01 -0.2854351014E-15 -0.1749390248E+01
  0.2000000000E+01  0.1000000000E+01  0.2570463033E+00  0.1894954299E-01  0.1132875694E-17  0.4987068760E+02  0.6711684995E+15  0.1786629930E-01  0.1089421986E-17  0.4986896334E+02