TITLE = "Generated from ../MESH/Convergence_0000000000.hmesh and Convergence_0000007100.hsol"
VARIABLES = "x","y","z","veloT_x","veloT_y","veloT_z","slr_4","velo_x","velo_y","velo_z"
ZONE I=6, J=6, K=1, F=POINT
  0.4000000000E+00  0.1000000000E+01  0.0000000000E+00 -0.7490983894E-02  0.3048618437E-19  0.8098678133E-02  0.6001710299E+15 -0.1215340986E-01  0.2934823121E-19  0.7900124522E-02
  0.3530110648E+00  0.1000000000E+01  0.0000000000E+00  0.3351802156E-02  0.7861007484E-20 -0.2514656776E-03  0.6001710299E+15 -0.2515612593E-02  0.9468223526E-20 -0.2255231806E-03
  0.2570463033E+00  0.1000000000E+01  0.0000000000E+00  0.3816700879E-02  0.1051418117E-20  0.2172471591E-02  0.6001710299E+15 -0.1359173910E-02  0.1850052030E-20  0.2280145489E-02
  0.1429536967E+00  0.1000000000E+01  0.0000000000E+00  0.2336826504E-02  0.6656934203E-22 -0.1024275984E-02  0.6001710299E+15 -0.2785691859E-02  0.3744603875E-21 -0.1113945460E-02
  0.4698893521E-01  0.1000000000E+01  0.0000000000E+00  0.4310916304E-02 -0.1908912733E-20  0.1550844173E-02  0.6001710299E+15  0.1661690062E-03 -0.2191059153E-20  0.2071359979E-02
  0.0000000000E+00  0.1000000000E+01  0.0000000000E+00 -0.7205778906E-02  0.6338466984E-23  0.1652472808E-02  0.6001710299E+15 -0.7625424251E-02  0.9943905661E-23  0.2142527052E-02
  0.4000000000E+00  0.1000000000E+01  0.4698893521E-01  0.2926681903E+00  0.3292807554E-17 -0.2975079704E-01  0.6001710299E+15  0.2848527488E+00  0.3338416911E-17 -0.6652237978E-01
  0.3530110648E+00  0.1000000000E+01  0.4698893521E-01  0.1490946360E+00  0.2859756775E-17  0.4753912298E-02  0.6001710299E+15  0.1371837233E+00  0.3024937224E-17 -0.2697651295E-01
  0.2570463033E+00  0.1000000000E+01  0.4698893521E-01  0.1137231246E+00  0.1320628171E-17 -0.1013665940E-01  0.6001710299E+15  0.1023124971E+00  0.1306511303E-17 -0.2982481247E-01
  0.1429536967E+00  0.1000000000E+01  0.4698893521E-01  0.1814417995E-01  0.4597478045E-18 -0.1243059041E-01  0.6001710299E+15  0.5847276722E-02  0.4220284581E-18 -0.1864987125E-01
  0.4698893521E-01  0.1000000000E+01  0.4698893521E-01  0.9569796948E-02  0.1189971209E-18 -0.1752726768E-01  0.6001710299E+15 -0.3907810949E-03  0.1095457959E-18 -0.1287942589E-01
  0.0000000000E+00  0.1000000000E+01  0.4698893521E-01 -0.1772488240E-01  0.7425084098E-21  0.2976521498E-04  0.6001710299E+15 -0.1817556362E-01  0.9038404470E-21  0.3878569024E-02
  0.4000000000E+00  0.1000000000E+01  0.1429536967E+00  0.6660060968E+00  0.1111621358E-16 -0.1193188079E+00  0.6001710299E+15  0.6487475661E+00  0.1086862647E-16 -0.1617233208E+00
  0.3530110648E+00  0.1000000000E+01  0.1429536967E+00  0.3903206497E+00  0.6795503403E-17 -0.1575174159E+00  0.6001710299E+15  0.3647491709E+00  0.7062869440E-17 -0.1944253248E+00
  0.2570463033E+00  0.1000000000E+01  0.1429536967E+00  0.2716039447E+00  0.3138403470E-17 -0.9957713082E-01  0.6001710299E+15  0.2464369818E+00  0.3116233405E-17 -0.1237358045E+00
  0.1429536967E+00  0.1000000000E+01  0.1429536967E+00  0.6452404752E-01  0.1294540839E-17 -0.1163393072E+00  0.6001710299E+15  0.3782908653E-01  0.1289772706E-17 -0.1241651366E+00
  0.4698893521E-01  0.1000000000E+01  0.1429536967E+00  0.9174816802E-02  0.3955850082E-18 -0.1761195828E-01  0.6001710299E+15 -0.1088874041E-01  0.3710065059E-18 -0.1173888186E-01
  0.0000000000E+00  0.1000000000E+01  0.1429536967E+00 -0.2163103434E-01 -0.9672957614E-21 -0.3790164926E-02  0.6001710299E+15 -0.2154813890E-01 -0.2343715638E-21  0.8706804944E-03
  0.4000000000E+00  0.1000000000E+01  0.2570463033E+00  0.8362793790E+00  0.5371052760E-17 -0.4398877750E+00  0.6001710299E+15  0.8103656681E+00  0.5350715526E-17 -0.4679099651E+00
  0.3530110648E+00  0.1000000000E+01  0.2570463033E+00  0.6248696904E+00  0.4299880645E-17 -0.4782762739E+00  0.6001710299E+15  0.5894870991E+00  0.3937705506E-17 -0.5033641917E+00
  0.2570463033E+00  0.1000000000E+01  0.2570463033E+00  0.3864732499E+00  0.3035435675E-17 -0.3323843034E+00  0.6001710299E+15  0.3494175747E+00  0.3039530384E-17 -0.3509531930E+00
  0.1429536967E+00  0.1000000000E+01  0.2570463033E+00  0.1376549562E+00  0.2068904029E-17 -0.2949166596E+00  0.6001710299E+15  0.9490242568E-01  0.2073227390E-17 -0.3005236270E+00
  0.4698893521E-01  0.1000000000E+01  0.2570463033E+00  0.3162069453E-01  0.1156238899E-17 -0.5713298291E-01  0.6001710299E+15  0.3870049122E-03  0.1243331439E-17 -0.5048967217E-01
  0.0000000000E+00  0.1000000000E+01  0.2570463033E+00 -0.1428647430E-01 -0.3113350838E-20 -0.2499930265E-02  0.6001710299E+15 -0.1428063089E-01 -0.4147662688E-20  0.1534249333E-02
  0.4000000000E+00  0.1000000000E+01  0.3530110648E+00  0.9558610534E+00  0.5550492592E-17 -0.7962464769E+00  0.6001710299E+15  0.9185672679E+00  0.5585491467E-17 -0.8334951462E+00
  0.3530110648E+00  0.1000000000E+01  0.3530110648E+00  0.7052938289E+00  0.4900774262E-17 -0.7901343066E+00  0.6001710299E+15  0.6621888307E+00  0.4899287342E-17 -0.8203683959E+00
  0.2570463033E+00  0.1000000000E+01  0.3530110648E+00  0.4256432885E+00  0.2860443073E-17 -0.5921483674E+00  0.6001710299E+15  0.3797206580E+00  0.3145953110E-17 -0.6120982955E+00
  0.1429536967E+00  0.1000000000E+01  0.3530110648E+00  0.1539365327E+00  0.2472777675E-17 -0.4590898820E+00  0.6001710299E+15  0.9717700289E-01  0.2513341044E-17 -0.4643534741E+00
  0.4698893521E-01  0.1000000000E+01  0.3530110648E+00  0.3819682897E-01  0.7991591225E-18 -0.1250609662E+00  0.6001710299E+15 -0.2747768269E-02  0.7211596933E-18 -0.1164598996E+00
  0.0000000000E+00  0.1000000000E+01  0.3530110648E+00 -0.1447090196E-01  0.5190948145E-20 -0.1844626275E-02  0.6001710299E+15 -0.1452102005E-01  0.4774936336E-20  0.2471663718E-02
  0.4000000000E+00  0.1000000000E+01  0.4000000000E+00  0.9684478345E+00  0.7332171076E-17 -0.9957140615E+00  0.6001710299E+15  0.9202281275E+00  0.7341586634E-17 -0.1037247258E+01
  0.3530110648E+00  0.1000000000E+01  0.4000000000E+00  0.7579793330E+00  0.6309161059E-17 -0.9634117644E+00  0.6001710299E+15  0.7072410887E+00  0.6404752841E-17 -0.9941333723E+00
  0.2570463033E+00  0.1000000000E+01  0.4000000000E+00  0.4383322474E+00  0.2648648657E-17 -0.7285871386E+00  0.6001710299E+15  0.3873629932E+00  0.2526895365E-17 -0.7459999990E+00
  0.1429536967E+00  0.1000000000E+01  0.4000000000E+00  0.1671865120E+00  0.2326614556E-17 -0.5467678291E+00  0.6001710299E+15  0.1037092640E+00  0.2314359678E-17 -0.5511161201E+00
  0.4698893521E-01  0.1000000000E+01  0.4000000000E+00  0.3457887624E-01  0.6877539564E-18 -0.1571398895E+00  0.6001710299E+15 -0.1146905618E-01  0.6545243979E-18 -0.1490490493E+00
  0.0000000000E+00  0.1000000000E+01  0.4000000000E+00 -0.6726031188E-02  0.7675209415E-20 -0.2707836063E-02  0.6001710299E+15 -0.7038422867E-02  0.8459917875E-20  0.1079830473E-02
ZONE I=6, J=6, K=1, F=POINT
  0.8000000000E+00  0.1000000000E+01  0.0000000000E+00  0.2714902820E-01 -0.8209707619E-19 -0.1135610428E-01  0.6001710299E+15  0.2147359969E-01 -0.8237642389E-19 -0.1141149110E-01
  0.7530110648E+00  0.1000000000E+01  0.0000000000E+00  0.1119215846E-01  0.2871189713E-18  0.5980328438E-02  0.6001710299E+15  0.5305860528E-02  0.1630433924E-18  0.6014356377E-02
  0.6570463033E+00  0.1000000000E+01  0.0000000000E+00  0.7502927432E-02  0.1258674480E-18  0.8255216883E-04  0.6001710299E+15  0.1523699641E-02  0.4794035190E-19  0.1019297367E-03
  0.5429536967E+00  0.1000000000E+01  0.0000000000E+00  0.7020331686E-02  0.1867508925E-18  0.6748081162E-02  0.6001710299E+15  0.1724872965E-02  0.4955291498E-19  0.6841073828E-02
  0.4469889352E+00  0.1000000000E+01  0.0000000000E+00  0.3313538028E-02  0.1217110097E-18  0.5633330322E-03  0.6001710299E+15 -0.1469785390E-02 -0.2423539559E-19  0.6317834795E-03
  0.4000000000E+00  0.1000000000E+01  0.0000000000E+00  0.1976789902E-01  0.3405789130E-19  0.7779348898E-02  0.6001710299E+15  0.1479411831E-01  0.3310258574E-19  0.7597938916E-02
  0.8000000000E+00  0.1000000000E+01  0.4698893521E-01  0.4257246293E+00 -0.2285008876E-16  0.2506543700E-01  0.6001710299E+15  0.4274050919E+00 -0.2287781485E-16 -0.1363483430E-01
  0.7530110648E+00  0.1000000000E+01  0.4698893521E-01  0.6102247317E+00 -0.2325498410E-16 -0.3252613090E-01  0.6001710299E+15  0.6113268163E+00 -0.2325919321E-16 -0.7235079657E-01
  0.6570463033E+00  0.1000000000E+01  0.4698893521E-01  0.3693867536E+00 -0.3567355592E-17  0.4739101444E-02  0.6001710299E+15  0.3675661200E+00 -0.3655236167E-17 -0.3656711481E-01
  0.5429536967E+00  0.1000000000E+01  0.4698893521E-01  0.3791087769E+00  0.5116050265E-17  0.1831142840E-01  0.6001710299E+15  0.3754548902E+00  0.5028472626E-17 -0.2292481012E-01
  0.4469889352E+00  0.1000000000E+01  0.4698893521E-01  0.2368217168E+00  0.4233820281E-17  0.1933729748E-01  0.6001710299E+15  0.2313847033E+00  0.4301402990E-17 -0.2029769831E-01
  0.4000000000E+00  0.1000000000E+01  0.4698893521E-01  0.3348245400E+00  0.3049941694E-17 -0.3050667578E-01  0.6001710299E+15  0.3266831056E+00  0.3096916536E-17 -0.6727075560E-01
  0.8000000000E+00  0.1000000000E+01  0.1429536967E+00  0.1321207272E+01 -0.5029887552E-16 -0.3682578865E+00  0.6001710299E+15  0.1324746335E+01 -0.5020282712E-16 -0.4248635054E+00
  0.7530110648E+00  0.1000000000E+01  0.1429536967E+00  0.1583477996E+01 -0.3148139010E-16 -0.2204456067E+00  0.6001710299E+15  0.1586607404E+01 -0.3112934895E-16 -0.2774540856E+00
  0.6570463033E+00  0.1000000000E+01  0.1429536967E+00  0.1082696199E+01 -0.2147598641E-17 -0.2111062294E+00  0.6001710299E+15  0.1079590877E+01 -0.2050130525E-17 -0.2660929003E+00
  0.5429536967E+00  0.1000000000E+01  0.1429536967E+00  0.9559751282E+00  0.1162867606E-16 -0.6362117703E-01  0.6001710299E+15  0.9498240667E+00  0.1142026986E-16 -0.1123826549E+00
  0.4469889352E+00  0.1000000000E+01  0.1429536967E+00  0.6146713029E+00  0.1044262582E-16 -0.1434459668E+00  0.6001710299E+15  0.6055004453E+00  0.1072876044E-16 -0.1883463157E+00
  0.4000000000E+00  0.1000000000E+01  0.1429536967E+00  0.7182292064E+00  0.1184101626E-16 -0.1187460539E+00  0.6001710299E+15  0.7006063868E+00  0.1159181145E-16 -0.1611650193E+00
  0.8000000000E+00  0.1000000000E+01  0.2570463033E+00  0.2543303154E+01 -0.9051908573E-17 -0.1016568710E+01  0.6001710299E+15  0.2546865945E+01 -0.9035055551E-17 -0.1080888645E+01
  0.7530110648E+00  0.1000000000E+01  0.2570463033E+00  0.2360087517E+01 -0.5095530782E-17 -0.7591627191E+00  0.6001710299E+15  0.2358947330E+01 -0.5973871442E-17 -0.8211823588E+00
  0.6570463033E+00  0.1000000000E+01  0.2570463033E+00  0.1787201295E+01 -0.1098107776E-17 -0.6780908535E+00  0.6001710299E+15  0.1775155608E+01 -0.7463188428E-18 -0.7309755185E+00
  0.5429536967E+00  0.1000000000E+01  0.2570463033E+00  0.1345829588E+01  0.5341120550E-17 -0.3915575132E+00  0.6001710299E+15  0.1331325696E+01  0.5105440476E-17 -0.4343993811E+00
  0.4469889352E+00  0.1000000000E+01  0.2570463033E+00  0.9468770190E+00  0.5804393127E-17 -0.4888174523E+00  0.6001710299E+15  0.9308095534E+00  0.5395521482E-17 -0.5216243371E+00
  0.4000000000E+00  0.1000000000E+01  0.2570463033E+00  0.8675670597E+00  0.5401785039E-17 -0.4391991252E+00  0.6001710299E+15  0.8420149565E+00  0.5378035365E-17 -0.4672811211E+00
  0.8000000000E+00  0.1000000000E+01  0.3530110648E+00  0.2935536126E+01  0.4592775447E-17 -0.1641597817E+01  0.6001710299E+15  0.2940973364E+01  0.4605998879E-17 -0.1716503361E+01
  0.7530110648E+00  0.1000000000E+01  0.3530110648E+00  0.2760882621E+01  0.9693777443E-17 -0.1414327424E+01  0.6001710299E+15  0.2752947721E+01  0.9198092846E-17 -0.1489390171E+01
  0.6570463033E+00  0.1000000000E+01  0.3530110648E+00  0.2089632192E+01  0.1151948508E-17 -0.1192476837E+01  0.6001710299E+15  0.2073361297E+01  0.2801434290E-17 -0.1268527087E+01
  0.5429536967E+00  0.1000000000E+01  0.3530110648E+00  0.1559228433E+01 -0.1721259957E-17 -0.8201719177E+00  0.6001710299E+15  0.1534754954E+01  0.4544488549E-18 -0.8960297723E+00
  0.4469889352E+00  0.1000000000E+01  0.3530110648E+00  0.1086748993E+01  0.5413798568E-17 -0.8457471396E+00  0.6001710299E+15  0.1050381563E+01  0.5773315879E-17 -0.8968875505E+00
  0.4000000000E+00  0.1000000000E+01  0.3530110648E+00  0.9885412193E+00  0.5520361019E-17 -0.7959851315E+00  0.6001710299E+15  0.9508875557E+00  0.5552475615E-17 -0.8332458659E+00
  0.8000000000E+00  0.1000000000E+01  0.4000000000E+00  0.3099049579E+01 -0.2652944707E-17 -0.2025795342E+01  0.6001710299E+15  0.3109938660E+01 -0.2659832901E-17 -0.2088926796E+01
  0.7530110648E+00  0.1000000000E+01  0.4000000000E+00  0.2793558233E+01  0.5982339370E-18 -0.1737272258E+01  0.6001710299E+15  0.2787745919E+01  0.7721174031E-18 -0.1806525125E+01
  0.6570463033E+00  0.1000000000E+01  0.4000000000E+00  0.2141927730E+01  0.1964812102E-17 -0.1505344471E+01  0.6001710299E+15  0.2132305861E+01  0.1411310025E-17 -0.1594290083E+01
  0.5429536967E+00  0.1000000000E+01  0.4000000000E+00  0.1587637459E+01  0.8948608647E-17 -0.1131168936E+01  0.6001710299E+15  0.1556665272E+01  0.7305534903E-17 -0.1230272286E+01
  0.4469889352E+00  0.1000000000E+01  0.4000000000E+00  0.1192359837E+01  0.1036625555E-16 -0.1086136828E+01  0.6001710299E+15  0.1135639965E+01  0.9449526774E-17 -0.1147936289E+01
  0.4000000000E+00  0.1000000000E+01  0.4000000000E+00  0.9800333137E+00  0.7344720906E-17 -0.9948267623E+00  0.6001710299E+15  0.9314760093E+00  0.7353052410E-17 -0.1036434009E+01
ZONE I=6, J=6, K=1, F=POINT
  0.1200000000E+01  0.1000000000E+01  0.0000000000E+00 -0.2080440101E-01  0.6051635878E-19  0.3674093351E-01  0.6001710299E+15 -0.2377668668E-01  0.6387134948E-19  0.3612568129E-01
  0.1153011065E+01  0.1000000000E+01  0.0000000000E+00  0.6194712206E-02  0.2883976270E-18 -0.9705298899E-02  0.6001710299E+15  0.2914234597E-02  0.1705443703E-18 -0.9844185923E-02
  0.1057046303E+01  0.1000000000E+01  0.0000000000E+00  0.1319719541E-01  0.3055839823E-18  0.5876552496E-02  0.6001710299E+15  0.9175000368E-02  0.1998532321E-18  0.5739181665E-02
  0.9429536967E+00  0.1000000000E+01  0.0000000000E+00  0.7924466800E-02  0.7856570314E-20 -0.8385912037E-02  0.6001710299E+15  0.3254414402E-02  0.1399010449E-19 -0.8399900494E-02
  0.8469889352E+00  0.1000000000E+01  0.0000000000E+00  0.1264220149E-01 -0.2441060079E-19  0.5290372088E-02  0.6001710299E+15  0.7540604629E-02 -0.2002353858E-19  0.5276823126E-02
  0.8000000000E+00  0.1000000000E+01  0.0000000000E+00 -0.1820794616E-01 -0.9118474059E-19 -0.1081410672E-01  0.6001710299E+15 -0.2387224908E-01 -0.9163009729E-19 -0.1090468347E-01
  0.1200000000E+01  0.1000000000E+01  0.4698893521E-01  0.2363015980E+01 -0.4295341211E-16 -0.1824874126E+00  0.6001710299E+15  0.2378509885E+01 -0.4359385407E-16 -0.1981114210E+00
  0.1153011065E+01  0.1000000000E+01  0.4698893521E-01  0.1666260506E+01 -0.2639125189E-16 -0.3845423904E-01  0.6001710299E+15  0.1680283259E+01 -0.2679227537E-16 -0.5777394256E-01
  0.1057046303E+01  0.1000000000E+01  0.4698893521E-01  0.1515527531E+01 -0.1105238806E-16 -0.7560246638E-01  0.6001710299E+15  0.1526745958E+01 -0.1096104682E-16 -0.1023579268E+00
  0.9429536967E+00  0.1000000000E+01  0.4698893521E-01  0.8839731483E+00 -0.1422586646E-16 -0.6508243626E-01  0.6001710299E+15  0.8910654375E+00 -0.1443384989E-16 -0.9980888929E-01
  0.8469889352E+00  0.1000000000E+01  0.4698893521E-01  0.7635824547E+00 -0.2757073189E-16 -0.6250417680E-01  0.6001710299E+15  0.7669874467E+00 -0.2768471103E-16 -0.1000977687E+00
  0.8000000000E+00  0.1000000000E+01  0.4698893521E-01  0.3638374546E+00 -0.2214572444E-16  0.2712171043E-01  0.6001710299E+15  0.3663223029E+00 -0.2219045461E-16 -0.1163404453E-01
  0.1200000000E+01  0.1000000000E+01  0.1429536967E+00  0.5531919310E+01 -0.5906116526E-16 -0.6207398741E+00  0.6001710299E+15  0.5563520082E+01 -0.5974869378E-16 -0.6356889409E+00
  0.1153011065E+01  0.1000000000E+01  0.1429536967E+00  0.4064023283E+01 -0.6553436685E-16 -0.8344195816E+00  0.6001710299E+15  0.4090193779E+01 -0.6400288174E-16 -0.8562830912E+00
  0.1057046303E+01  0.1000000000E+01  0.1429536967E+00  0.3637983160E+01 -0.3587907453E-16 -0.6254455422E+00  0.6001710299E+15  0.3661691207E+01 -0.3595959603E-16 -0.6631528394E+00
  0.9429536967E+00  0.1000000000E+01  0.1429536967E+00  0.2319748618E+01 -0.3125288750E-16 -0.7353830016E+00  0.6001710299E+15  0.2333994164E+01 -0.3129197646E-16 -0.7878832076E+00
  0.8469889352E+00  0.1000000000E+01  0.1429536967E+00  0.1983682406E+01 -0.4787317699E-16 -0.3872754868E+00  0.6001710299E+15  0.1988301032E+01 -0.4770046989E-16 -0.4436365592E+00
  0.8000000000E+00  0.1000000000E+01  0.1429536967E+00  0.1236391956E+01 -0.5253172990E-16 -0.3699450141E+00  0.6001710299E+15  0.1242784598E+01 -0.5241505153E-16 -0.4264848112E+00
  0.1200000000E+01  0.1000000000E+01  0.2570463033E+00  0.6103286182E+01 -0.8278583560E-17 -0.1774584213E+01  0.6001710299E+15  0.6149433956E+01 -0.8245248651E-17 -0.1777290166E+01
  0.1153011065E+01  0.1000000000E+01  0.2570463033E+00  0.5549247411E+01 -0.3981121590E-16 -0.2041804400E+01  0.6001710299E+15  0.5598451133E+01 -0.4513898971E-16 -0.2056545627E+01
  0.1057046303E+01  0.1000000000E+01  0.2570463033E+00  0.4652554071E+01 -0.2897143892E-16 -0.1677525987E+01  0.6001710299E+15  0.4698052074E+01 -0.2890729115E-16 -0.1715238586E+01
  0.9429536967E+00  0.1000000000E+01  0.2570463033E+00  0.3591181466E+01 -0.2782672170E-16 -0.1737471886E+01  0.6001710299E+15  0.3616225481E+01 -0.2912049744E-16 -0.1792779030E+01
  0.8469889352E+00  0.1000000000E+01  0.2570463033E+00  0.2955472625E+01 -0.9274697728E-17 -0.1094457948E+01  0.6001710299E+15  0.2962480920E+01 -0.9898165719E-17 -0.1158126312E+01
  0.8000000000E+00  0.1000000000E+01  0.2570463033E+00  0.2505064008E+01 -0.9218073703E-17 -0.1019272098E+01  0.6001710299E+15  0.2509453451E+01 -0.9212091417E-17 -0.1083149674E+01
  0.1200000000E+01  0.1000000000E+01  0.3530110648E+00  0.6626786304E+01  0.2684342865E-16 -0.2949804141E+01  0.6001710299E+15  0.6696592797E+01  0.2682444844E-16 -0.2953610988E+01
  0.1153011065E+01  0.1000000000E+01  0.3530110648E+00  0.5880206080E+01  0.9402122787E-17 -0.2916780721E+01  0.6001710299E+15  0.5955570772E+01  0.8422030617E-17 -0.2931986468E+01
  0.1057046303E+01  0.1000000000E+01  0.3530110648E+00  0.5082683397E+01 -0.8550812976E-17 -0.2612187810E+01  0.6001710299E+15  0.5147598224E+01 -0.8116000321E-17 -0.2648364093E+01
  0.9429536967E+00  0.1000000000E+01  0.3530110648E+00  0.4009559885E+01 -0.1372547267E-16 -0.2445977978E+01  0.6001710299E+15  0.4047571301E+01 -0.1450112156E-16 -0.2500718869E+01
  0.8469889352E+00  0.1000000000E+01  0.3530110648E+00  0.3417320403E+01  0.1442983594E-17 -0.1833887553E+01  0.6001710299E+15  0.3433472407E+01  0.2488397773E-17 -0.1903247614E+01
  0.8000000000E+00  0.1000000000E+01  0.3530110648E+00  0.2888018299E+01  0.4649025055E-17 -0.1641918267E+01  0.6001710299E+15  0.2894480656E+01  0.4650000418E-17 -0.1716836155E+01
  0.1200000000E+01  0.1000000000E+01  0.4000000000E+00  0.6447940479E+01  0.2944053898E-16 -0.3288497587E+01  0.6001710299E+15  0.6525194970E+01  0.2938984540E-16 -0.3293086955E+01
  0.1153011065E+01  0.1000000000E+01  0.4000000000E+00  0.6062318222E+01  0.2253643952E-16 -0.3453424603E+01  0.6001710299E+15  0.6145989646E+01  0.2412792064E-16 -0.3464729074E+01
  0.1057046303E+01  0.1000000000E+01  0.4000000000E+00  0.5121392005E+01  0.4222503649E-18 -0.3041808686E+01  0.6001710299E+15  0.5194292632E+01  0.1114709724E-17 -0.3064863770E+01
  0.9429536967E+00  0.1000000000E+01  0.4000000000E+00  0.4157338289E+01 -0.1467302373E-16 -0.2862302833E+01  0.6001710299E+15  0.4202347498E+01 -0.1568995598E-16 -0.2901879709E+01
  0.8469889352E+00  0.1000000000E+01  0.4000000000E+00  0.3437192039E+01 -0.7536206412E-17 -0.2183378644E+01  0.6001710299E+15  0.3461024139E+01 -0.7231491292E-17 -0.2237953575E+01
  0.8000000000E+00  0.1000000000E+01  0.4000000000E+00  0.3094185807E+01 -0.2636072671E-17 -0.2029255626E+01  0.6001710299E+15  0.3106413505E+01 -0.2648047598E-17 -0.2091867588E+01
ZONE I=6, J=6, K=1, F=POINT
  0.1600000000E+01  0.1000000000E+01  0.0000000000E+00  0.1414729843E+00 -0.9443756394E-18 -0.7176504272E-01  0.6001710299E+15  0.1419505516E+00 -0.1042406857E-17 -0.7148056134E-01
  0.1553011065E+01  0.1000000000E+01  0.0000000000E+00  0.2096963917E-01 -0.1823268143E-17  0.4521683906E-01  0.6001710299E+15  0.2163952238E-01 -0.1892739520E-17  0.4508116475E-01
  0.1457046303E+01  0.1000000000E+01  0.0000000000E+00  0.3340050086E-02 -0.3464253851E-18 -0.3181545131E-02  0.6001710299E+15  0.2909197825E-02 -0.3454167716E-18 -0.3290662254E-02
  0.1342953697E+01  0.1000000000E+01  0.0000000000E+00  0.1597050557E-01  0.9965336132E-18  0.2968549786E-01  0.6001710299E+15  0.1452569202E-01  0.9186639527E-18  0.2950995801E-01
  0.1246988935E+01  0.1000000000E+01  0.0000000000E+00  0.2934586360E-02  0.1848102732E-18 -0.8253638149E-02  0.6001710299E+15  0.6882340608E-03  0.1458743200E-18 -0.8479107620E-02
  0.1200000000E+01  0.1000000000E+01  0.0000000000E+00  0.6856132733E-01  0.6693164689E-19  0.3673596932E-01  0.6001710299E+15  0.6567940411E-01  0.7097251367E-19  0.3614224356E-01
  0.1600000000E+01  0.1000000000E+01  0.4698893521E-01  0.3000391332E+01 -0.8797367846E-16  0.2832047305E+00  0.6001710299E+15  0.3021988086E+01 -0.8847472300E-16  0.2592798350E+00
  0.1553011065E+01  0.1000000000E+01  0.4698893521E-01  0.3531570600E+01 -0.4365779999E-16 -0.2216949143E+00  0.6001710299E+15  0.3550959634E+01 -0.4305841347E-16 -0.2425493231E+00
  0.1457046303E+01  0.1000000000E+01  0.4698893521E-01  0.2619627295E+01 -0.5092609938E-17 -0.4362876888E-01  0.6001710299E+15  0.2637938917E+01 -0.5652096476E-17 -0.5378881403E-01
  0.1342953697E+01  0.1000000000E+01  0.4698893521E-01  0.2662995914E+01  0.2825124814E-16 -0.3147763485E-01  0.6001710299E+15  0.2680883179E+01  0.2840274121E-16 -0.4066993444E-01
  0.1246988935E+01  0.1000000000E+01  0.4698893521E-01  0.2093185643E+01 -0.6786458104E-17 -0.7521476757E-02  0.6001710299E+15  0.2108842142E+01 -0.6126432324E-17 -0.2062543510E-01
  0.1200000000E+01  0.1000000000E+01  0.4698893521E-01  0.2461956854E+01 -0.4718894879E-16 -0.1881834242E+00  0.6001710299E+15  0.2475353827E+01 -0.4780905550E-16 -0.2034383753E+00
  0.1600000000E+01  0.1000000000E+01  0.1429536967E+00  0.6474159376E+01 -0.2685275376E-15 -0.1631571204E+01  0.6001710299E+15  0.6485556266E+01 -0.2670297639E-15 -0.1625620406E+01
  0.1553011065E+01  0.1000000000E+01  0.1429536967E+00  0.8235155316E+01 -0.1447641107E-15 -0.7991012195E+00  0.6001710299E+15  0.8248540713E+01 -0.1453760533E-15 -0.7953577278E+00
  0.1457046303E+01  0.1000000000E+01  0.1429536967E+00  0.6301862065E+01  0.2984638460E-16 -0.8147584391E+00  0.6001710299E+15  0.6317140000E+01  0.3061200713E-16 -0.8120632094E+00
  0.1342953697E+01  0.1000000000E+01  0.1429536967E+00  0.6340014277E+01  0.9887463364E-16 -0.1553966696E+00  0.6001710299E+15  0.6362987100E+01  0.9972717484E-16 -0.1565483853E+00
  0.1246988935E+01  0.1000000000E+01  0.1429536967E+00  0.4984390258E+01  0.2380950868E-16 -0.7428405336E+00  0.6001710299E+15  0.5008404753E+01  0.2221968947E-16 -0.7514775958E+00
  0.1200000000E+01  0.1000000000E+01  0.1429536967E+00  0.5700291876E+01 -0.6323934739E-16 -0.6150237763E+00  0.6001710299E+15  0.5719705430E+01 -0.6376008214E-16 -0.6308299674E+00
  0.1600000000E+01  0.1000000000E+01  0.2570463033E+00  0.1161584957E+02  0.1001111860E-15 -0.3324378644E+01  0.6001710299E+15  0.1166086395E+02  0.1001709769E-15 -0.3307060905E+01
  0.1553011065E+01  0.1000000000E+01  0.2570463033E+00  0.1063092290E+02  0.1223823131E-15 -0.2248464730E+01  0.6001710299E+15  0.1065489343E+02  0.1225955250E-15 -0.2228467806E+01
  0.1457046303E+01  0.1000000000E+01  0.2570463033E+00  0.9397353661E+01  0.1796172021E-15 -0.2187249071E+01  0.6001710299E+15  0.9417031240E+01  0.1806414923E-15 -0.2170835050E+01
  0.1342953697E+01  0.1000000000E+01  0.2570463033E+00  0.7835688595E+01  0.1272938482E-15 -0.1165110956E+01  0.6001710299E+15  0.7866279862E+01  0.1290115552E-15 -0.1152539597E+01
  0.1246988935E+01  0.1000000000E+01  0.2570463033E+00  0.6587639110E+01  0.3970991377E-16 -0.1985697602E+01  0.6001710299E+15  0.6626152023E+01  0.4168287010E-16 -0.1980202979E+01
  0.1200000000E+01  0.1000000000E+01  0.2570463033E+00  0.6143441060E+01 -0.8553531609E-17 -0.1764635532E+01  0.6001710299E+15  0.6189757883E+01 -0.8570414869E-17 -0.1770324510E+01
  0.1600000000E+01  0.1000000000E+01  0.3530110648E+00  0.1028589878E+02  0.2028028510E-15 -0.3688551740E+01  0.6001710299E+15  0.1032130804E+02  0.2026149536E-15 -0.3667035312E+01
  0.1553011065E+01  0.1000000000E+01  0.3530110648E+00  0.1057005141E+02  0.2035792348E-15 -0.3629157802E+01  0.6001710299E+15  0.1059107452E+02  0.2037043253E-15 -0.3606092970E+01
  0.1457046303E+01  0.1000000000E+01  0.3530110648E+00  0.9485097045E+01  0.1884915894E-15 -0.3307144479E+01  0.6001710299E+15  0.9506323074E+01  0.1893350268E-15 -0.3282296706E+01
  0.1342953697E+01  0.1000000000E+01  0.3530110648E+00  0.8257639362E+01  0.1383909477E-15 -0.2670541410E+01  0.6001710299E+15  0.8294490695E+01  0.1393938849E-15 -0.2653322574E+01
  0.1246988935E+01  0.1000000000E+01  0.3530110648E+00  0.6837932282E+01  0.5531473169E-16 -0.2969118509E+01  0.6001710299E+15  0.6890508787E+01  0.5376715397E-16 -0.2963766344E+01
  0.1200000000E+01  0.1000000000E+01  0.3530110648E+00  0.6704916649E+01  0.2695876659E-16 -0.2950016991E+01  0.6001710299E+15  0.6770859549E+01  0.2690832858E-16 -0.2953614450E+01
  0.1600000000E+01  0.1000000000E+01  0.4000000000E+00  0.1053821082E+02  0.2032558373E-15 -0.4341897967E+01  0.6001710299E+15  0.1057847268E+02  0.2031066062E-15 -0.4285756580E+01
  0.1553011065E+01  0.1000000000E+01  0.4000000000E+00  0.9973248755E+01  0.2128607194E-15 -0.3603445934E+01  0.6001710299E+15  0.9996573669E+01  0.2121494992E-15 -0.3547586479E+01
  0.1457046303E+01  0.1000000000E+01  0.4000000000E+00  0.9469381182E+01  0.1772363530E-15 -0.3814965525E+01  0.6001710299E+15  0.9493236931E+01  0.1771928955E-15 -0.3770671188E+01
  0.1342953697E+01  0.1000000000E+01  0.4000000000E+00  0.8097475344E+01  0.1427092493E-15 -0.3073939934E+01  0.6001710299E+15  0.8142734854E+01  0.1452331246E-15 -0.3051433665E+01
  0.1246988935E+01  0.1000000000E+01  0.4000000000E+00  0.7047030547E+01  0.5217603682E-16 -0.3553304998E+01  0.6001710299E+15  0.7106926515E+01  0.5173804943E-16 -0.3549539481E+01
  0.1200000000E+01  0.1000000000E+01  0.4000000000E+00  0.6421264809E+01  0.2970779727E-16 -0.3275963163E+01  0.6001710299E+15  0.6500414070E+01  0.2965462797E-16 -0.3283523196E+01
ZONE I=6, J=6, K=1, F=POINT
  0.2000000000E+01  0.1000000000E+01  0.0000000000E+00  0.2402592959E+01  0.7588857282E-19  0.2123424298E+02  0.6001710299E+15  0.2431395270E+01  0.9797322529E-19  0.2215658098E+02
  0.1953011065E+01  0.1000000000E+01  0.0000000000E+00  0.1301704255E+01 -0.3754466635E-16 -0.1371714167E+00  0.6001710299E+15  0.1309887248E+01 -0.3636548054E-16 -0.1489766166E+00
  0.1857046303E+01  0.1000000000E+01  0.0000000000E+00 -0.2942761819E+00 -0.1807885542E-16  0.1520981816E+00  0.6001710299E+15 -0.2910280222E+00 -0.1837886631E-16  0.1500938372E+00
  0.1742953697E+01  0.1000000000E+01  0.0000000000E+00  0.1459498132E+00  0.2449470544E-18 -0.3695416967E-01  0.6001710299E+15  0.1486425917E+00  0.1464541206E-18 -0.3666704558E-01
  0.1646988935E+01  0.1000000000E+01  0.0000000000E+00 -0.1138628695E+00  0.2624053887E-18  0.6040286648E-01  0.6001710299E+15 -0.1121187321E+00  0.2399665908E-18  0.5946243695E-01
  0.1600000000E+01  0.1000000000E+01  0.0000000000E+00  0.9952571243E-01 -0.1025438063E-17 -0.8379737244E-01  0.6001710299E+15  0.9974820331E-01 -0.1125846390E-17 -0.8215038621E-01
  0.2000000000E+01  0.1000000000E+01  0.4698893521E-01 -0.1247485500E-01  0.7493237372E-18  0.4849265538E+02  0.6001710299E+15 -0.5399288236E-01  0.6944559699E-18  0.4867181091E+02
  0.1953011065E+01  0.1000000000E+01  0.4698893521E-01  0.1095103635E+02  0.1350337613E-15  0.1458569272E+01  0.6001710299E+15  0.1097442638E+02  0.1341759224E-15  0.1506947316E+01
  0.1857046303E+01  0.1000000000E+01  0.4698893521E-01  0.1158719020E+02  0.2852144990E-15 -0.1895261817E+01  0.6001710299E+15  0.1162823969E+02  0.2882527312E-15 -0.1870987627E+01
  0.1742953697E+01  0.1000000000E+01  0.4698893521E-01  0.5684116368E+01 -0.4383583956E-16 -0.6149453511E+00  0.6001710299E+15  0.5722154151E+01 -0.4361458925E-16 -0.6109335313E+00
  0.1646988935E+01  0.1000000000E+01  0.4698893521E-01  0.4438628797E+01 -0.1223682721E-15 -0.5773864401E+00  0.6001710299E+15  0.4474239533E+01 -0.1244209206E-15 -0.5936452859E+00
  0.1600000000E+01  0.1000000000E+01  0.4698893521E-01  0.2835625684E+01 -0.8511535240E-16  0.2689690734E+00  0.6001710299E+15  0.2866247667E+01 -0.8541940903E-16  0.2398092962E+00
  0.2000000000E+01  0.1000000000E+01  0.1429536967E+00 -0.2819183219E+00  0.2748037729E-17  0.5051657802E+02  0.6001710299E+15 -0.2582221270E+00  0.2722504729E-17  0.5045730921E+02
  0.1953011065E+01  0.1000000000E+01  0.1429536967E+00  0.2772782021E+01 -0.5109193739E-15  0.1633878509E+02  0.6001710299E+15  0.2794502063E+01 -0.5076283082E-15  0.1641481446E+02
  0.1857046303E+01  0.1000000000E+01  0.1429536967E+00  0.1262283768E+02 -0.2638254083E-15 -0.3677464078E+01  0.6001710299E+15  0.1266720853E+02 -0.2666770120E-15 -0.3628154094E+01
  0.1742953697E+01  0.1000000000E+01  0.1429536967E+00  0.9902670359E+01 -0.3999491935E-16 -0.3998136658E+01  0.6001710299E+15  0.9960403325E+01 -0.3484857757E-16 -0.3969527820E+01
  0.1646988935E+01  0.1000000000E+01  0.1429536967E+00  0.9377847467E+01 -0.1641887432E-15 -0.1905681023E+01  0.6001710299E+15  0.9436038131E+01 -0.1636845768E-15 -0.1891680227E+01
  0.1600000000E+01  0.1000000000E+01  0.1429536967E+00  0.6101765691E+01 -0.2851908785E-15 -0.1632105592E+01  0.6001710299E+15  0.6153731562E+01 -0.2839937046E-15 -0.1630354525E+01
  0.2000000000E+01  0.1000000000E+01  0.2570463033E+00  0.1904205794E-01  0.1142616208E-17  0.4988633242E+02  0.6001710299E+15  0.1799417928E-01  0.1123935621E-17  0.4989344826E+02