TITLE = "Generated from ../MESH/Convergence_0000000000.hmesh and Convergence_0000004100.hsol"
VARIABLES = "x","y","z","veloT_x","veloT_y","veloT_z","slr_4","velo_x","velo_y","velo_z"
ZONE I=6, J=6, K=1, F=POINT
  0.4000000000E+00  0.1000000000E+01  0.0000000000E+00 -0.1088412302E-01  0.2852179344E-19  0.6974830781E-02  0.6426646996E+15 -0.1158855811E-01  0.2827034871E-19  0.6844702983E-02
  0.3530110648E+00  0.1000000000E+01  0.0000000000E+00 -0.6064387722E-03  0.8284942640E-20 -0.5249899973E-03  0.6426646996E+15 -0.1189996700E-02  0.1050584306E-19 -0.5060058762E-03
  0.2570463033E+00  0.1000000000E+01  0.0000000000E+00  0.6966463474E-03  0.1006070705E-20  0.2237777811E-02  0.6426646996E+15  0.2346875033E-03  0.1664085091E-20  0.2224210949E-02
  0.1429536967E+00  0.1000000000E+01  0.0000000000E+00 -0.3655701391E-04  0.2209879460E-21 -0.1040855209E-02  0.6426646996E+15 -0.6143586424E-03  0.3638189059E-21 -0.1081129566E-02
  0.4698893521E-01  0.1000000000E+01  0.0000000000E+00  0.2440330253E-02 -0.2274529949E-20  0.1843249972E-02  0.6426646996E+15  0.1996670007E-02 -0.2184009983E-20  0.1859382175E-02
  0.0000000000E+00  0.1000000000E+01  0.0000000000E+00 -0.7400471119E-02  0.1186920229E-22  0.1965068955E-02  0.6426646996E+15 -0.7436113030E-02  0.1448920948E-22  0.2020370689E-02
  0.4000000000E+00  0.1000000000E+01  0.4698893521E-01  0.2679635172E+00  0.2928425422E-17 -0.4484712715E-01  0.6426646996E+15  0.2669610643E+00  0.2934570932E-17 -0.4580515926E-01
  0.3530110648E+00  0.1000000000E+01  0.4698893521E-01  0.1289777081E+00  0.2631440521E-17 -0.8829558175E-02  0.6426646996E+15  0.1278562362E+00  0.2644747962E-17 -0.9345429747E-02
  0.2570463033E+00  0.1000000000E+01  0.4698893521E-01  0.1016661714E+00  0.1027476539E-17 -0.2127914918E-01  0.6426646996E+15  0.1008599322E+00  0.1029981821E-17 -0.2042693216E-01
  0.1429536967E+00  0.1000000000E+01  0.4698893521E-01  0.6789997660E-02  0.2642358965E-18 -0.1381162775E-01  0.6426646996E+15  0.6608247262E-02  0.2650052440E-18 -0.1193766488E-01
  0.4698893521E-01  0.1000000000E+01  0.4698893521E-01 -0.2358298752E-03  0.5606302665E-19 -0.1054169841E-01  0.6426646996E+15  0.5772496986E-04  0.5578779473E-19 -0.9950267176E-02
  0.0000000000E+00  0.1000000000E+01  0.4698893521E-01 -0.1799768768E-01  0.9333967838E-21  0.1652901458E-02  0.6426646996E+15 -0.1802615045E-01  0.9585082623E-21  0.2088552418E-02
  0.4000000000E+00  0.1000000000E+01  0.1429536967E+00  0.5962061484E+00  0.9565864664E-17 -0.1188461894E+00  0.6426646996E+15  0.5911554444E+00  0.9499132787E-17 -0.1409113293E+00
  0.3530110648E+00  0.1000000000E+01  0.1429536967E+00  0.3408359880E+00  0.5864458454E-17 -0.1590428457E+00  0.6426646996E+15  0.3350618312E+00  0.5989459155E-17 -0.1772614904E+00
  0.2570463033E+00  0.1000000000E+01  0.1429536967E+00  0.2399769132E+00  0.2312225607E-17 -0.1053643822E+00  0.6426646996E+15  0.2344501865E+00  0.2305210274E-17 -0.1149242374E+00
  0.1429536967E+00  0.1000000000E+01  0.1429536967E+00  0.3821809193E-01  0.8356635418E-18 -0.1182532116E+00  0.6426646996E+15  0.3653471507E-01  0.8343946042E-18 -0.1206851203E+00
  0.4698893521E-01  0.1000000000E+01  0.1429536967E+00 -0.6038090654E-02  0.2092098614E-18 -0.1220108846E-01  0.6426646996E+15 -0.5141491286E-02  0.2096718547E-18 -0.1234251724E-01
  0.0000000000E+00  0.1000000000E+01  0.1429536967E+00 -0.2137190050E-01 -0.1253489187E-21 -0.1951642209E-02  0.6426646996E+15 -0.2130371651E-01  0.2467085339E-21 -0.1494237580E-02
  0.4000000000E+00  0.1000000000E+01  0.2570463033E+00  0.6904328875E+00  0.3452719009E-17 -0.3770754066E+00  0.6426646996E+15  0.6749506704E+00  0.3432595915E-17 -0.4124079665E+00
  0.3530110648E+00  0.1000000000E+01  0.2570463033E+00  0.5162576381E+00  0.2456434459E-17 -0.4224161666E+00  0.6426646996E+15  0.4978663582E+00  0.2024279202E-17 -0.4527521814E+00
  0.2570463033E+00  0.1000000000E+01  0.2570463033E+00  0.3189904760E+00  0.1885918357E-17 -0.2988564843E+00  0.6426646996E+15  0.3010880048E+00  0.1890681787E-17 -0.3178069445E+00
  0.1429536967E+00  0.1000000000E+01  0.2570463033E+00  0.9112294753E-01  0.1437748727E-17 -0.2841538388E+00  0.6426646996E+15  0.8176674970E-01  0.1440775396E-17 -0.2904448697E+00
  0.4698893521E-01  0.1000000000E+01  0.2570463033E+00  0.9168934821E-02  0.1000931141E-17 -0.5200812420E-01  0.6426646996E+15  0.7789560552E-02  0.9870560551E-18 -0.5310250313E-01
  0.0000000000E+00  0.1000000000E+01  0.2570463033E+00 -0.1423397376E-01 -0.3728410529E-20 -0.1579555161E-02  0.6426646996E+15 -0.1417867149E-01 -0.4536884189E-20 -0.1550814795E-02
  0.4000000000E+00  0.1000000000E+01  0.3530110648E+00  0.7278914887E+00  0.3877840916E-17 -0.6461056773E+00  0.6426646996E+15  0.7044690553E+00  0.3896508242E-17 -0.6801915036E+00
  0.3530110648E+00  0.1000000000E+01  0.3530110648E+00  0.5411051067E+00  0.3444475423E-17 -0.6554844907E+00  0.6426646996E+15  0.5138878124E+00  0.3439036802E-17 -0.6863846921E+00
  0.2570463033E+00  0.1000000000E+01  0.3530110648E+00  0.3312005297E+00  0.1852052591E-17 -0.5053444598E+00  0.6426646996E+15  0.3011885820E+00  0.2142735923E-17 -0.5256164680E+00
  0.1429536967E+00  0.1000000000E+01  0.3530110648E+00  0.9499508199E-01  0.1945548221E-17 -0.4231622740E+00  0.6426646996E+15  0.7693126135E-01  0.1999428712E-17 -0.4295718739E+00
  0.4698893521E-01  0.1000000000E+01  0.3530110648E+00  0.1196737982E-01  0.5929846834E-18 -0.1141039003E+00  0.6426646996E+15  0.9080281104E-02  0.6054701047E-18 -0.1155216764E+00
  0.0000000000E+00  0.1000000000E+01  0.3530110648E+00 -0.1428380470E-01  0.5455070826E-20 -0.1732497859E-02  0.6426646996E+15 -0.1435877231E-01  0.4610246210E-20 -0.1855716008E-02
  0.4000000000E+00  0.1000000000E+01  0.4000000000E+00  0.7065444563E+00  0.6036870332E-17 -0.7791729356E+00  0.6426646996E+15  0.6802447976E+00  0.6033820313E-17 -0.8207479761E+00
  0.3530110648E+00  0.1000000000E+01  0.4000000000E+00  0.5701016996E+00  0.5202480030E-17 -0.7779854544E+00  0.6426646996E+15  0.5384012560E+00  0.5306457581E-17 -0.8151899283E+00
  0.2570463033E+00  0.1000000000E+01  0.4000000000E+00  0.3335372529E+00  0.2098221004E-17 -0.6082023848E+00  0.6426646996E+15  0.2969153978E+00  0.1970080302E-17 -0.6317461210E+00
  0.1429536967E+00  0.1000000000E+01  0.4000000000E+00  0.1048166403E+00  0.2109864463E-17 -0.4953159663E+00  0.6426646996E+15  0.8235533226E-01  0.2043803079E-17 -0.5036752317E+00
  0.4698893521E-01  0.1000000000E+01  0.4000000000E+00  0.8611429104E-02  0.5932612620E-18 -0.1433226104E+00  0.6426646996E+15  0.4470946703E-02  0.5998619506E-18 -0.1450939813E+00
  0.0000000000E+00  0.1000000000E+01  0.4000000000E+00 -0.6832182785E-02  0.7716783978E-20 -0.3135183559E-02  0.6426646996E+15 -0.7180509832E-02  0.7950179028E-20 -0.3122554093E-02
ZONE I=6, J=6, K=1, F=POINT
  0.8000000000E+00  0.1000000000E+01  0.0000000000E+00  0.1880208554E-01 -0.8507786444E-19 -0.1127794502E-01  0.6426646996E+15  0.1738634005E-01 -0.8653338838E-19 -0.1156585385E-01
  0.7530110648E+00  0.1000000000E+01  0.0000000000E+00  0.3116547790E-02  0.1027062460E-18  0.6058636952E-02  0.6426646996E+15  0.1791101234E-02  0.7905519392E-19  0.5968553427E-02
  0.6570463033E+00  0.1000000000E+01  0.0000000000E+00  0.3920806860E-03  0.3468716608E-19  0.1479741954E-03  0.6426646996E+15 -0.6229169386E-03  0.2181519231E-19  0.1673768462E-03
  0.5429536967E+00  0.1000000000E+01  0.0000000000E+00  0.2041288459E-02  0.5936844873E-19  0.6787140870E-02  0.6426646996E+15  0.1024374036E-02  0.3513793716E-19  0.6820726448E-02
  0.4469889352E+00  0.1000000000E+01  0.0000000000E+00 -0.3681962924E-03  0.1009289258E-19  0.4846793666E-03  0.6426646996E+15 -0.1382229164E-02 -0.1737862872E-19  0.3953346629E-03
  0.4000000000E+00  0.1000000000E+01  0.0000000000E+00  0.1591849676E-01  0.3209651312E-19  0.6675590806E-02  0.6426646996E+15  0.1510882018E-01  0.3189238887E-19  0.6513845183E-02
  0.8000000000E+00  0.1000000000E+01  0.4698893521E-01  0.3258061842E+00 -0.2408240347E-16 -0.7544214019E-02  0.6426646996E+15  0.3249606568E+00 -0.2406892652E-16 -0.1153882410E-02
  0.7530110648E+00  0.1000000000E+01  0.4698893521E-01  0.5190242329E+00 -0.2353294880E-16 -0.6366176111E-01  0.6426646996E+15  0.5196014840E+00 -0.2356645493E-16 -0.6061063798E-01
  0.6570463033E+00  0.1000000000E+01  0.4698893521E-01  0.3005714666E+00 -0.4793878437E-17 -0.2668093492E-01  0.6426646996E+15  0.3007161127E+00 -0.4798604124E-17 -0.3040412911E-01
  0.5429536967E+00  0.1000000000E+01  0.4698893521E-01  0.3330285897E+00  0.4243564248E-17 -0.1269949221E-01  0.6426646996E+15  0.3318022911E+00  0.4220262653E-17 -0.1756579098E-01
  0.4469889352E+00  0.1000000000E+01  0.4698893521E-01  0.2058351814E+00  0.3859293205E-17 -0.2215208628E-02  0.6426646996E+15  0.2048578428E+00  0.3868046600E-17 -0.4507614751E-02
  0.4000000000E+00  0.1000000000E+01  0.4698893521E-01  0.3106398194E+00  0.2683936991E-17 -0.4561542480E-01  0.6426646996E+15  0.3093421722E+00  0.2691333771E-17 -0.4656791027E-01
  0.8000000000E+00  0.1000000000E+01  0.1429536967E+00  0.1036773682E+01 -0.5483413083E-16 -0.3659699326E+00  0.6426646996E+15  0.1041329813E+01 -0.5468877883E-16 -0.3858599881E+00
  0.7530110648E+00  0.1000000000E+01  0.1429536967E+00  0.1327712182E+01 -0.3476574857E-16 -0.2195436688E+00  0.6426646996E+15  0.1335844096E+01 -0.3467575045E-16 -0.2422098712E+00
  0.6570463033E+00  0.1000000000E+01  0.1429536967E+00  0.8890918081E+00 -0.4211938003E-17 -0.2110887592E+00  0.6426646996E+15  0.8932602228E+00 -0.4396535687E-17 -0.2376428839E+00
  0.5429536967E+00  0.1000000000E+01  0.1429536967E+00  0.8233564875E+00  0.9163286534E-17 -0.6276749353E-01  0.6426646996E+15  0.8205672138E+00  0.9067128775E-17 -0.8995310280E-01
  0.4469889352E+00  0.1000000000E+01  0.1429536967E+00  0.5240206592E+00  0.9375194650E-17 -0.1416666006E+00  0.6426646996E+15  0.5194072671E+00  0.9525111254E-17 -0.1661829635E+00
  0.4000000000E+00  0.1000000000E+01  0.1429536967E+00  0.6473079456E+00  0.1027053342E-16 -0.1182960656E+00  0.6426646996E+15  0.6419571756E+00  0.1020127274E-16 -0.1403662910E+00
  0.8000000000E+00  0.1000000000E+01  0.2570463033E+00  0.2023588577E+01 -0.1490706189E-16 -0.8998459178E+00  0.6426646996E+15  0.2036131276E+01 -0.1489249334E-16 -0.9412681894E+00
  0.7530110648E+00  0.1000000000E+01  0.2570463033E+00  0.1896678589E+01 -0.1084870949E-16 -0.6453053352E+00  0.6426646996E+15  0.1909336013E+01 -0.1153415516E-16 -0.6894891828E+00
  0.6570463033E+00  0.1000000000E+01  0.2570463033E+00  0.1430836670E+01 -0.4458604615E-17 -0.5804554025E+00  0.6426646996E+15  0.1436259688E+01 -0.4589891436E-17 -0.6271131468E+00
  0.5429536967E+00  0.1000000000E+01  0.2570463033E+00  0.1091678803E+01  0.2087547974E-17 -0.3194887158E+00  0.6426646996E+15  0.1086619762E+01  0.2017542610E-17 -0.3647311972E+00
  0.4469889352E+00  0.1000000000E+01  0.2570463033E+00  0.7646368709E+00  0.3287830567E-17 -0.4231597656E+00  0.6426646996E+15  0.7533556498E+00  0.2791140801E-17 -0.4626558419E+00
  0.4000000000E+00  0.1000000000E+01  0.2570463033E+00  0.7209714196E+00  0.3478119579E-17 -0.3764222386E+00  0.6426646996E+15  0.7061830019E+00  0.3456896055E-17 -0.4117907321E+00
  0.8000000000E+00  0.1000000000E+01  0.3530110648E+00  0.2225015812E+01 -0.2599199145E-18 -0.1385012317E+01  0.6426646996E+15  0.2247495906E+01 -0.2682878629E-18 -0.1418974822E+01
  0.7530110648E+00  0.1000000000E+01  0.3530110648E+00  0.2125102640E+01  0.4420893569E-17 -0.1161110214E+01  0.6426646996E+15  0.2145129985E+01  0.5501290215E-17 -0.1200292868E+01
  0.6570463033E+00  0.1000000000E+01  0.3530110648E+00  0.1614933482E+01 -0.1345630528E-17 -0.9733977194E+00  0.6426646996E+15  0.1622682414E+01 -0.9465735260E-18 -0.1019040493E+01
  0.5429536967E+00  0.1000000000E+01  0.3530110648E+00  0.1202817227E+01 -0.1319240841E-17 -0.6608122765E+00  0.6426646996E+15  0.1193311057E+01 -0.3481783604E-18 -0.7060385036E+00
  0.4469889352E+00  0.1000000000E+01  0.3530110648E+00  0.7979514507E+00  0.3495268185E-17 -0.6931854511E+00  0.6426646996E+15  0.7776319265E+00  0.3781927888E-17 -0.7315962816E+00
  0.4000000000E+00  0.1000000000E+01  0.3530110648E+00  0.7616950326E+00  0.3852739348E-17 -0.6458987015E+00  0.6426646996E+15  0.7373790598E+00  0.3874732307E-17 -0.6799839546E+00
  0.8000000000E+00  0.1000000000E+01  0.4000000000E+00  0.2310254117E+01 -0.5903196371E-17 -0.1668514319E+01  0.6426646996E+15  0.2338379702E+01 -0.5908407241E-17 -0.1703238812E+01
  0.7530110648E+00  0.1000000000E+01  0.4000000000E+00  0.2083593464E+01 -0.2585743172E-17 -0.1386169523E+01  0.6426646996E+15  0.2107692275E+01 -0.2271934400E-17 -0.1424196302E+01
  0.6570463033E+00  0.1000000000E+01  0.4000000000E+00  0.1622643794E+01 -0.5656569677E-18 -0.1188892141E+01  0.6426646996E+15  0.1631999872E+01 -0.7965237817E-18 -0.1231170783E+01
  0.5429536967E+00  0.1000000000E+01  0.4000000000E+00  0.1185058587E+01  0.5492166309E-17 -0.8805487063E+00  0.6426646996E+15  0.1174510186E+01  0.4914983417E-17 -0.9254783814E+00
  0.4469889352E+00  0.1000000000E+01  0.4000000000E+00  0.8478812430E+00  0.6599977060E-17 -0.8544144950E+00  0.6426646996E+15  0.8244974042E+00  0.6202003069E-17 -0.8975919018E+00
  0.4000000000E+00  0.1000000000E+01  0.4000000000E+00  0.7180741191E+00  0.6054560632E-17 -0.7783816991E+00  0.6426646996E+15  0.6913856069E+00  0.6053481918E-17 -0.8200503884E+00
ZONE I=6, J=6, K=1, F=POINT
  0.1200000000E+01  0.1000000000E+01  0.0000000000E+00 -0.3104956465E-01  0.5743012332E-19  0.3664407976E-01  0.6426646996E+15 -0.3269394841E-01  0.5852864613E-19  0.3689896265E-01
  0.1153011065E+01  0.1000000000E+01  0.0000000000E+00 -0.3958094437E-02 -0.1733095127E-18 -0.9693602362E-02  0.6426646996E+15 -0.5366517484E-02 -0.2331651598E-18 -0.9490763046E-02
  0.1057046303E+01  0.1000000000E+01  0.0000000000E+00  0.3364705024E-02  0.5154704121E-19  0.6051151964E-02  0.6426646996E+15  0.2032538148E-02  0.1621930389E-19  0.6007797649E-02
  0.9429536967E+00  0.1000000000E+01  0.0000000000E+00 -0.9243631570E-03  0.4529186629E-20 -0.8219300472E-02  0.6426646996E+15 -0.2313726130E-02  0.5978567365E-20 -0.8196982548E-02
  0.8469889352E+00  0.1000000000E+01  0.0000000000E+00  0.4512355745E-02 -0.2130012718E-19  0.5468858358E-02  0.6426646996E+15  0.3462114675E-02 -0.1993124167E-19  0.5357230646E-02
  0.8000000000E+00  0.1000000000E+01  0.0000000000E+00 -0.2657819282E-01 -0.9458461845E-19 -0.1072827930E-01  0.6426646996E+15 -0.2750245667E-01 -0.9629467974E-19 -0.1103042158E-01
  0.1200000000E+01  0.1000000000E+01  0.4698893521E-01  0.2179090151E+01 -0.4235949706E-16 -0.2228394159E+00  0.6426646996E+15  0.2177302561E+01 -0.4225266501E-16 -0.2091704274E+00
  0.1153011065E+01  0.1000000000E+01  0.4698893521E-01  0.1490839753E+01 -0.2664057185E-16 -0.7666777984E-01  0.6426646996E+15  0.1490485362E+01 -0.2663865449E-16 -0.6441801997E-01
  0.1057046303E+01  0.1000000000E+01  0.4698893521E-01  0.1355048857E+01 -0.1280532868E-16 -0.1087033396E+00  0.6426646996E+15  0.1354822925E+01 -0.1279766995E-16 -0.1016737989E+00
  0.9429536967E+00  0.1000000000E+01  0.4698893521E-01  0.7530902553E+00 -0.1538823370E-16 -0.9472079769E-01  0.6426646996E+15  0.7512599893E+00 -0.1532968377E-16 -0.9072486917E-01
  0.8469889352E+00  0.1000000000E+01  0.4698893521E-01  0.6542303432E+00 -0.2833671517E-16 -0.9362180560E-01  0.6426646996E+15  0.6526144997E+00 -0.2826809595E-16 -0.8743969389E-01
  0.8000000000E+00  0.1000000000E+01  0.4698893521E-01  0.2648795139E+00 -0.2338417855E-16 -0.5488017068E-02  0.6426646996E+15  0.2647068437E+00 -0.2338414280E-16  0.8470980027E-03
  0.1200000000E+01  0.1000000000E+01  0.1429536967E+00  0.5012794153E+01 -0.5912303118E-16 -0.6468530411E+00  0.6426646996E+15  0.5017668702E+01 -0.5912393634E-16 -0.6358634905E+00
  0.1153011065E+01  0.1000000000E+01  0.1429536967E+00  0.3559302118E+01 -0.6861173060E-16 -0.8506622003E+00  0.6426646996E+15  0.3565966706E+01 -0.6834619542E-16 -0.8424850285E+00
  0.1057046303E+01  0.1000000000E+01  0.1429536967E+00  0.3181085861E+01 -0.4023047479E-16 -0.6302227612E+00  0.6426646996E+15  0.3188025006E+01 -0.4025007966E-16 -0.6301080535E+00
  0.9429536967E+00  0.1000000000E+01  0.1429536967E+00  0.1940070213E+01 -0.3572197068E-16 -0.7347206597E+00  0.6426646996E+15  0.1941628849E+01 -0.3572322001E-16 -0.7434315109E+00
  0.8469889352E+00  0.1000000000E+01  0.1429536967E+00  0.1667139151E+01 -0.5147840151E-16 -0.3872719502E+00  0.6426646996E+15  0.1667715861E+01 -0.5141167137E-16 -0.4037280709E+00
  0.8000000000E+00  0.1000000000E+01  0.1429536967E+00  0.9542615485E+00 -0.5701674056E-16 -0.3675824187E+00  0.6426646996E+15  0.9595144976E+00 -0.5691153155E-16 -0.3874453218E+00
  0.1200000000E+01  0.1000000000E+01  0.2570463033E+00  0.5176610536E+01 -0.8006874548E-17 -0.1729269888E+01  0.6426646996E+15  0.5181510325E+01 -0.7961146151E-17 -0.1736794171E+01
  0.1153011065E+01  0.1000000000E+01  0.2570463033E+00  0.4646596950E+01 -0.4163569984E-16 -0.1972281940E+01  0.6426646996E+15  0.4659933993E+01 -0.4309116460E-16 -0.1981800490E+01
  0.1057046303E+01  0.1000000000E+01  0.2570463033E+00  0.3831915944E+01 -0.3467737297E-16 -0.1568387448E+01  0.6426646996E+15  0.3848402310E+01 -0.3465280779E-16 -0.1582998825E+01
  0.9429536967E+00  0.1000000000E+01  0.2570463033E+00  0.2896905689E+01 -0.3316533780E-16 -0.1606982725E+01  0.6426646996E+15  0.2910628937E+01 -0.3386597519E-16 -0.1632578227E+01
  0.8469889352E+00  0.1000000000E+01  0.2570463033E+00  0.2375773138E+01 -0.1667357622E-16 -0.9762464181E+00  0.6426646996E+15  0.2389426151E+01 -0.1671518295E-16 -0.1013004072E+01
  0.8000000000E+00  0.1000000000E+01  0.2570463033E+00  0.1985318932E+01 -0.1506253682E-16 -0.9023467279E+00  0.6426646996E+15  0.1999124474E+01 -0.1504863293E-16 -0.9434125543E+00
  0.1200000000E+01  0.1000000000E+01  0.3530110648E+00  0.5375194377E+01  0.3053930543E-16 -0.2848319400E+01  0.6426646996E+15  0.5382611282E+01  0.3056924553E-16 -0.2866470054E+01
  0.1153011065E+01  0.1000000000E+01  0.3530110648E+00  0.4661397003E+01  0.1021790569E-16 -0.2765967442E+01  0.6426646996E+15  0.4675607873E+01  0.1004830352E-16 -0.2783428380E+01
  0.1057046303E+01  0.1000000000E+01  0.3530110648E+00  0.3959658630E+01 -0.1078737500E-16 -0.2379835129E+01  0.6426646996E+15  0.3982693415E+01 -0.1054188802E-16 -0.2398887807E+01
  0.9429536967E+00  0.1000000000E+01  0.3530110648E+00  0.3063841020E+01 -0.1744587283E-16 -0.2167020879E+01  0.6426646996E+15  0.3086338903E+01 -0.1793737545E-16 -0.2194311829E+01
  0.8469889352E+00  0.1000000000E+01  0.3530110648E+00  0.2640841382E+01 -0.3384879369E-17 -0.1569418097E+01  0.6426646996E+15  0.2661212872E+01 -0.2551987138E-17 -0.1600762023E+01
  0.8000000000E+00  0.1000000000E+01  0.3530110648E+00  0.2178727759E+01 -0.2057699633E-18 -0.1385261566E+01  0.6426646996E+15  0.2201888753E+01 -0.2099047073E-18 -0.1419280315E+01
  0.1200000000E+01  0.1000000000E+01  0.4000000000E+00  0.5049304828E+01  0.3651123240E-16 -0.3157013285E+01  0.6426646996E+15  0.5055958858E+01  0.3652103365E-16 -0.3175700872E+01
  0.1153011065E+01  0.1000000000E+01  0.4000000000E+00  0.4701038194E+01  0.2712636332E-16 -0.3255931925E+01  0.6426646996E+15  0.4714044236E+01  0.2747305734E-16 -0.3274736563E+01
  0.1057046303E+01  0.1000000000E+01  0.4000000000E+00  0.3864729292E+01  0.8503779593E-18 -0.2739084724E+01  0.6426646996E+15  0.3890059486E+01  0.9867846066E-18 -0.2758776418E+01
  0.9429536967E+00  0.1000000000E+01  0.4000000000E+00  0.3101295096E+01 -0.1631353534E-16 -0.2503959310E+01  0.6426646996E+15  0.3126388096E+01 -0.1687796833E-16 -0.2529338948E+01
  0.8469889352E+00  0.1000000000E+01  0.4000000000E+00  0.2575698317E+01 -0.1059627133E-16 -0.1822083070E+01  0.6426646996E+15  0.2598090600E+01 -0.1039504327E-16 -0.1853253266E+01
  0.8000000000E+00  0.1000000000E+01  0.4000000000E+00  0.2306247116E+01 -0.5884764532E-17 -0.1671759309E+01  0.6426646996E+15  0.2334176443E+01 -0.5891926888E-17 -0.1706130372E+01
ZONE I=6, J=6, K=1, F=POINT
  0.1600000000E+01  0.1000000000E+01  0.0000000000E+00  0.1302628086E+00 -0.9117274004E-18 -0.7161196841E-01  0.6426646996E+15  0.1284014090E+00 -0.1031435594E-17 -0.7083869158E-01
  0.1553011065E+01  0.1000000000E+01  0.0000000000E+00  0.1037317688E-01 -0.1315490131E-17  0.4544183292E-01  0.6426646996E+15  0.8755591425E-02 -0.1264381217E-17  0.4539431517E-01
  0.1457046303E+01  0.1000000000E+01  0.0000000000E+00 -0.7055031072E-02 -0.9053033239E-19 -0.3202010950E-02  0.6426646996E+15 -0.9073350603E-02 -0.6342796435E-19 -0.3239785972E-02
  0.1342953697E+01  0.1000000000E+01  0.0000000000E+00  0.5601698389E-02  0.4187495754E-18  0.2985192970E-01  0.6426646996E+15  0.3445304567E-02  0.3010022219E-18  0.2976327925E-01
  0.1246988935E+01  0.1000000000E+01  0.0000000000E+00 -0.7212832284E-02  0.1235945888E-18 -0.8319588447E-02  0.6426646996E+15 -0.9219878545E-02  0.1184288839E-18 -0.8114650242E-02
  0.1200000000E+01  0.1000000000E+01  0.0000000000E+00  0.5840224524E-01  0.6176481692E-19  0.3665944630E-01  0.6426646996E+15  0.5671428479E-01  0.6265452622E-19  0.3693699977E-01
  0.1600000000E+01  0.1000000000E+01  0.4698893521E-01  0.2999889684E+01 -0.8864269963E-16  0.2208033250E+00  0.6426646996E+15  0.2994362698E+01 -0.8851771014E-16  0.2207970076E+00
  0.1553011065E+01  0.1000000000E+01  0.4698893521E-01  0.3483145778E+01 -0.4396290902E-16 -0.2840771803E+00  0.6426646996E+15  0.3478884951E+01 -0.4409344599E-16 -0.2830404455E+00
  0.1457046303E+01  0.1000000000E+01  0.4698893521E-01  0.2499600289E+01 -0.4822144759E-17 -0.1001002197E+00  0.6426646996E+15  0.2495046206E+01 -0.4668799192E-17 -0.9538417004E-01
  0.1342953697E+01  0.1000000000E+01  0.4698893521E-01  0.2486707358E+01  0.2867299897E-16 -0.7725380940E-01  0.6426646996E+15  0.2481008631E+01  0.2862770187E-16 -0.6845704171E-01
  0.1246988935E+01  0.1000000000E+01  0.4698893521E-01  0.1911963782E+01 -0.6816871344E-17 -0.4774450621E-01  0.6426646996E+15  0.1906813664E+01 -0.7042571040E-17 -0.3466542346E-01
  0.1200000000E+01  0.1000000000E+01  0.4698893521E-01  0.2277288948E+01 -0.4657031754E-16 -0.2285414737E+00  0.6426646996E+15  0.2273378832E+01 -0.4642845848E-16 -0.2144793837E+00
  0.1600000000E+01  0.1000000000E+01  0.1429536967E+00  0.6308723249E+01 -0.2662507327E-15 -0.1844283577E+01  0.6426646996E+15  0.6286918597E+01 -0.2665571598E-15 -0.1845310875E+01
  0.1553011065E+01  0.1000000000E+01  0.1429536967E+00  0.7983289358E+01 -0.1434068678E-15 -0.1006439426E+01  0.6426646996E+15  0.7975841522E+01 -0.1433168314E-15 -0.1006764103E+01
  0.1457046303E+01  0.1000000000E+01  0.1429536967E+00  0.5891215172E+01  0.3272600357E-16 -0.9778675267E+00  0.6426646996E+15  0.5883452378E+01  0.3204981838E-16 -0.9760722348E+00
  0.1342953697E+01  0.1000000000E+01  0.1429536967E+00  0.5827039195E+01  0.1011561798E-15 -0.2423867959E+00  0.6426646996E+15  0.5816030418E+01  0.1007748222E-15 -0.2343498267E+00
  0.1246988935E+01  0.1000000000E+01  0.1429536967E+00  0.4461398060E+01  0.2563064616E-16 -0.7767747894E+00  0.6426646996E+15  0.4454708374E+01  0.2624254768E-16 -0.7647550293E+00
  0.1200000000E+01  0.1000000000E+01  0.1429536967E+00  0.5178336516E+01 -0.6327004398E-16 -0.6415105602E+00  0.6426646996E+15  0.5172884527E+01 -0.6315925784E-16 -0.6311729106E+00
  0.1600000000E+01  0.1000000000E+01  0.2570463033E+00  0.1111980298E+02  0.1001189865E-15 -0.3763566808E+01  0.6426646996E+15  0.1111891557E+02  0.1000366661E-15 -0.3784905657E+01
  0.1553011065E+01  0.1000000000E+01  0.2570463033E+00  0.1001100447E+02  0.1238715187E-15 -0.2666053337E+01  0.6426646996E+15  0.1000518909E+02  0.1235249531E-15 -0.2681381957E+01
  0.1457046303E+01  0.1000000000E+01  0.2570463033E+00  0.8586107460E+01  0.1866433384E-15 -0.2496366155E+01  0.6426646996E+15  0.8574239115E+01  0.1858570368E-15 -0.2507970190E+01
  0.1342953697E+01  0.1000000000E+01  0.2570463033E+00  0.6910816955E+01  0.1340726315E-15 -0.1282887564E+01  0.6426646996E+15  0.6896758057E+01  0.1332575195E-15 -0.1291271159E+01
  0.1246988935E+01  0.1000000000E+01  0.2570463033E+00  0.5650217608E+01  0.4239353292E-16 -0.1969955140E+01  0.6426646996E+15  0.5644226534E+01  0.4199473093E-16 -0.1976670184E+01
  0.1200000000E+01  0.1000000000E+01  0.2570463033E+00  0.5216898134E+01 -0.8296877340E-17 -0.1719975480E+01  0.6426646996E+15  0.5220942460E+01 -0.8255596551E-17 -0.1730101234E+01
  0.1600000000E+01  0.1000000000E+01  0.3530110648E+00  0.9497992354E+01  0.1986799493E-15 -0.4366653451E+01  0.6426646996E+15  0.9487181002E+01  0.1986341015E-15 -0.4388999031E+01
  0.1553011065E+01  0.1000000000E+01  0.3530110648E+00  0.9638526476E+01  0.2055717020E-15 -0.4269273909E+01  0.6426646996E+15  0.9625901334E+01  0.2054574140E-15 -0.4290472660E+01
  0.1457046303E+01  0.1000000000E+01  0.3530110648E+00  0.8341884950E+01  0.1994543897E-15 -0.3770390870E+01  0.6426646996E+15  0.8327080005E+01  0.1986824949E-15 -0.3786392688E+01
  0.1342953697E+01  0.1000000000E+01  0.3530110648E+00  0.6992472472E+01  0.1507181510E-15 -0.2838559029E+01  0.6426646996E+15  0.6978594514E+01  0.1504305057E-15 -0.2854891702E+01
  0.1246988935E+01  0.1000000000E+01  0.3530110648E+00  0.5563111536E+01  0.6279996736E-16 -0.2927333341E+01  0.6426646996E+15  0.5557687125E+01  0.6323323980E-16 -0.2944773493E+01
  0.1200000000E+01  0.1000000000E+01  0.3530110648E+00  0.5453010663E+01  0.3065180665E-16 -0.2848810295E+01  0.6426646996E+15  0.5456615462E+01  0.3064192151E-16 -0.2866624671E+01
  0.1600000000E+01  0.1000000000E+01  0.4000000000E+00  0.9627651339E+01  0.1995512435E-15 -0.5153327423E+01  0.6426646996E+15  0.9621591100E+01  0.1994648063E-15 -0.5165292465E+01
  0.1553011065E+01  0.1000000000E+01  0.4000000000E+00  0.8911646342E+01  0.2169287793E-15 -0.4363988284E+01  0.6426646996E+15  0.8899406897E+01  0.2172288040E-15 -0.4374931425E+01
  0.1457046303E+01  0.1000000000E+01  0.4000000000E+00  0.8179517899E+01  0.1909513640E-15 -0.4363111490E+01  0.6426646996E+15  0.8162884904E+01  0.1909942464E-15 -0.4372973102E+01
  0.1342953697E+01  0.1000000000E+01  0.4000000000E+00  0.6678937126E+01  0.1590153499E-15 -0.3271096744E+01  0.6426646996E+15  0.6667873461E+01  0.1581908660E-15 -0.3284273489E+01
  0.1246988935E+01  0.1000000000E+01  0.4000000000E+00  0.5621701860E+01  0.6377192790E-16 -0.3504542720E+01  0.6426646996E+15  0.5616497874E+01  0.6402210917E-16 -0.3521702155E+01
  0.1200000000E+01  0.1000000000E+01  0.4000000000E+00  0.5023495107E+01  0.3677868372E-16 -0.3145261370E+01  0.6426646996E+15  0.5031009737E+01  0.3676598310E-16 -0.3166448622E+01
ZONE I=6, J=6, K=1, F=POINT
  0.2000000000E+01  0.1000000000E+01  0.0000000000E+00  0.2402126852E+01  0.7353173077E-19  0.2123388931E+02  0.6426646996E+15  0.2429864378E+01  0.9391431250E-19  0.2215485284E+02
  0.1953011065E+01  0.1000000000E+01  0.0000000000E+00  0.1290417669E+01 -0.3732211903E-16 -0.1375938963E+00  0.6426646996E+15  0.1293573227E+01 -0.3604345059E-16 -0.1509007748E+00
  0.1857046303E+01  0.1000000000E+01  0.0000000000E+00 -0.3080478132E+00 -0.1888737823E-16  0.1518675117E+00  0.6426646996E+15 -0.3098234438E+00 -0.1944038033E-16  0.1505057206E+00
  0.1742953697E+01  0.1000000000E+01  0.0000000000E+00  0.1333651671E+00  0.2201876551E-18 -0.3722008245E-01  0.6426646996E+15  0.1327154110E+00  0.1037438091E-18 -0.3699115376E-01
  0.1646988935E+01  0.1000000000E+01  0.0000000000E+00 -0.1281001950E+00  0.3293386365E-18  0.6073043361E-01  0.6426646996E+15 -0.1293507870E+00  0.3005962001E-18  0.5992659803E-01
  0.1600000000E+01  0.1000000000E+01  0.0000000000E+00  0.8845108598E-01 -0.9904640555E-18 -0.8370669921E-01  0.6426646996E+15  0.8644063898E-01 -0.1112082057E-17 -0.8156792681E-01
  0.2000000000E+01  0.1000000000E+01  0.4698893521E-01 -0.1231908503E-01  0.7467853084E-18  0.4848150960E+02  0.6426646996E+15 -0.5523278661E-01  0.6854917286E-18  0.4865561515E+02
  0.1953011065E+01  0.1000000000E+01  0.4698893521E-01  0.1096022341E+02  0.1365811493E-15  0.1464933302E+01  0.6426646996E+15  0.1094382630E+02  0.1353282984E-15  0.1477989063E+01
  0.1857046303E+01  0.1000000000E+01  0.4698893521E-01  0.1165156513E+02  0.2899334072E-15 -0.1890250756E+01  0.6426646996E+15  0.1164789569E+02  0.2898164237E-15 -0.1890597298E+01
  0.1742953697E+01  0.1000000000E+01  0.4698893521E-01  0.5772149102E+01 -0.3918771383E-16 -0.6521877229E+00  0.6426646996E+15  0.5771146630E+01 -0.3882820508E-16 -0.6540162931E+00
  0.1646988935E+01  0.1000000000E+01  0.4698893521E-01  0.4466315358E+01 -0.1219198073E-15 -0.6346954617E+00  0.6426646996E+15  0.4459754401E+01 -0.1217713965E-15 -0.6333453448E+00
  0.1600000000E+01  0.1000000000E+01  0.4698893521E-01  0.2835861693E+01 -0.8579093559E-16  0.2066169531E+00  0.6426646996E+15  0.2839332178E+01 -0.8547740310E-16  0.2013069830E+00
  0.2000000000E+01  0.1000000000E+01  0.1429536967E+00 -0.2817374193E+00  0.2726596109E-17  0.5050159990E+02  0.6426646996E+15 -0.2573344757E+00  0.2756941523E-17  0.5043755149E+02
  0.1953011065E+01  0.1000000000E+01  0.1429536967E+00  0.2792580688E+01 -0.5132968175E-15  0.1640015887E+02  0.6426646996E+15  0.2775095327E+01 -0.5135127394E-15  0.1643165986E+02
  0.1857046303E+01  0.1000000000E+01  0.1429536967E+00  0.1273254228E+02 -0.2602215265E-15 -0.3606503863E+01  0.6426646996E+15  0.1272318737E+02 -0.2598969714E-15 -0.3605843358E+01
  0.1742953697E+01  0.1000000000E+01  0.1429536967E+00  0.9988862844E+01 -0.2338717644E-16 -0.4093735161E+01  0.6426646996E+15  0.9984075886E+01 -0.2437638017E-16 -0.4100121385E+01
  0.1646988935E+01  0.1000000000E+01  0.1429536967E+00  0.9305070720E+01 -0.1596362257E-15 -0.2098366322E+01  0.6426646996E+15  0.9298771441E+01 -0.1594085689E-15 -0.2099013172E+01
  0.1600000000E+01  0.1000000000E+01  0.1429536967E+00  0.5937809303E+01 -0.2827803102E-15 -0.1844271264E+01  0.6426646996E+15  0.5956157917E+01 -0.2834560070E-15 -0.1849915430E+01
  0.2000000000E+01  0.1000000000E+01  0.2570463033E+00  0.1902152445E-01  0.1114006294E-17  0.4987145548E+02  0.6426646996E+15  0.1806753824E-01  0.1076147425E-17  0.4987579148E+02