TITLE = "Generated from ../MESH/Convergence_0000000000.hmesh and Convergence_0000006400.hsol"
VARIABLES = "x","y","z","veloT_x","veloT_y","veloT_z","slr_4","velo_x","velo_y","velo_z"
ZONE I=6, J=6, K=1, F=POINT
  0.4000000000E+00  0.1000000000E+01  0.0000000000E+00 -0.1067063790E-01  0.2813986161E-19  0.7576731631E-02  0.6558494894E+15 -0.1150697139E-01  0.2835787862E-19  0.7106600426E-02
  0.3530110648E+00  0.1000000000E+01  0.0000000000E+00 -0.6828303285E-04  0.8509274607E-20 -0.1553146776E-03  0.6558494894E+15 -0.1343696900E-02  0.8010134923E-20 -0.3194951024E-03
  0.2570463033E+00  0.1000000000E+01  0.0000000000E+00  0.1004938156E-02  0.1045638013E-20  0.2376143115E-02  0.6558494894E+15 -0.2554058109E-03  0.7609407413E-21  0.2381860774E-02
  0.1429536967E+00  0.1000000000E+01  0.0000000000E+00  0.2314787584E-03  0.1453435133E-21 -0.1016125856E-02  0.6558494894E+15 -0.1460635376E-02  0.8393213592E-22 -0.1067457363E-02
  0.4698893521E-01  0.1000000000E+01  0.0000000000E+00  0.2859955820E-02 -0.2241049547E-20  0.1743941936E-02  0.6558494894E+15  0.1335141804E-02 -0.2420884873E-20  0.1893264522E-02
  0.0000000000E+00  0.1000000000E+01  0.0000000000E+00 -0.7351810344E-02  0.1253537726E-22  0.1894833445E-02  0.6558494894E+15 -0.7509554012E-02  0.1275640864E-22  0.2073016497E-02
  0.4000000000E+00  0.1000000000E+01  0.4698893521E-01  0.2752659424E+00  0.3285922867E-17 -0.4223311038E-01  0.6558494894E+15  0.2750524480E+00  0.3287674603E-17 -0.3783654620E-01
  0.3530110648E+00  0.1000000000E+01  0.4698893521E-01  0.1335326214E+00  0.2938611742E-17 -0.5084932489E-02  0.6558494894E+15  0.1321203917E+00  0.2949551788E-17 -0.1530609637E-02
  0.2570463033E+00  0.1000000000E+01  0.4698893521E-01  0.1017946372E+00  0.1274706924E-17 -0.1675391702E-01  0.6558494894E+15  0.1004137220E+00  0.1277843145E-17 -0.1582800960E-01
  0.1429536967E+00  0.1000000000E+01  0.4698893521E-01  0.7907464379E-02  0.4066103357E-18 -0.1049646632E-01  0.6558494894E+15  0.4558283639E-02  0.3970267129E-18 -0.1111100531E-01
  0.4698893521E-01  0.1000000000E+01  0.4698893521E-01  0.2932518575E-02  0.1020986054E-18 -0.1148078166E-01  0.6558494894E+15 -0.5637506785E-03  0.9865881898E-19 -0.9724637202E-02
  0.0000000000E+00  0.1000000000E+01  0.4698893521E-01 -0.1798110588E-01  0.9323893283E-21  0.1383911579E-02  0.6558494894E+15 -0.1817934873E-01  0.9086247946E-21  0.2881717618E-02
  0.4000000000E+00  0.1000000000E+01  0.1429536967E+00  0.6309477719E+00  0.1060929646E-16 -0.1320734464E+00  0.6558494894E+15  0.6327307058E+00  0.1063140731E-16 -0.1256314478E+00
  0.3530110648E+00  0.1000000000E+01  0.1429536967E+00  0.3631389392E+00  0.6729971350E-17 -0.1682142044E+00  0.6558494894E+15  0.3636002497E+00  0.6694741287E-17 -0.1627224879E+00
  0.2570463033E+00  0.1000000000E+01  0.1429536967E+00  0.2479933288E+00  0.2997512807E-17 -0.1053781674E+00  0.6558494894E+15  0.2496415289E+00  0.3000194274E-17 -0.1020489183E+00
  0.1429536967E+00  0.1000000000E+01  0.1429536967E+00  0.4505782712E-01  0.1226102231E-17 -0.1137373216E+00  0.6558494894E+15  0.4138605180E-01  0.1226730313E-17 -0.1130018492E+00
  0.4698893521E-01  0.1000000000E+01  0.1429536967E+00  0.1353255272E-02  0.3436189864E-18 -0.1144657768E-01  0.6558494894E+15 -0.5374834378E-02  0.3317225084E-18 -0.8711541913E-02
  0.0000000000E+00  0.1000000000E+01  0.1429536967E+00 -0.2151035803E-01 -0.1279403706E-21 -0.2094292765E-02  0.6558494894E+15 -0.2150558244E-01 -0.1377682009E-21 -0.2740065485E-03
  0.4000000000E+00  0.1000000000E+01  0.2570463033E+00  0.7760396841E+00  0.5083077631E-17 -0.4310459087E+00  0.6558494894E+15  0.7822633227E+00  0.5092074974E-17 -0.4196299201E+00
  0.3530110648E+00  0.1000000000E+01  0.2570463033E+00  0.5763499072E+00  0.4006608613E-17 -0.4660107989E+00  0.6558494894E+15  0.5806682229E+00  0.4129264559E-17 -0.4574360961E+00
  0.2570463033E+00  0.1000000000E+01  0.2570463033E+00  0.3479325494E+00  0.2893594672E-17 -0.3193266039E+00  0.6558494894E+15  0.3541841895E+00  0.2893417074E-17 -0.3169698248E+00
  0.1429536967E+00  0.1000000000E+01  0.2570463033E+00  0.1109724929E+00  0.1997161931E-17 -0.2850405974E+00  0.6558494894E+15  0.1069995106E+00  0.1997557417E-17 -0.2856469862E+00
  0.4698893521E-01  0.1000000000E+01  0.2570463033E+00  0.2310410624E-01  0.1199007591E-17 -0.5133856569E-01  0.6558494894E+15  0.1219462371E-01  0.1237894565E-17 -0.4835740085E-01
  0.0000000000E+00  0.1000000000E+01  0.2570463033E+00 -0.1431233582E-01 -0.3971149373E-20 -0.1520177132E-02  0.6558494894E+15 -0.1435001699E-01 -0.3885130202E-20  0.2023245386E-03
  0.4000000000E+00  0.1000000000E+01  0.3530110648E+00  0.8635349098E+00  0.5510896337E-17 -0.7484231714E+00  0.6558494894E+15  0.8736349965E+00  0.5501740502E-17 -0.7346675142E+00
  0.3530110648E+00  0.1000000000E+01  0.3530110648E+00  0.6389408545E+00  0.4853028617E-17 -0.7436253180E+00  0.6558494894E+15  0.6505709308E+00  0.4855262587E-17 -0.7311119520E+00
  0.2570463033E+00  0.1000000000E+01  0.3530110648E+00  0.3799225220E+00  0.2638851549E-17 -0.5578073137E+00  0.6558494894E+15  0.3929654945E+00  0.2564231402E-17 -0.5525310588E+00
  0.1429536967E+00  0.1000000000E+01  0.3530110648E+00  0.1272079589E+00  0.2378991129E-17 -0.4400127366E+00  0.6558494894E+15  0.1216344172E+00  0.2367197545E-17 -0.4386476503E+00
  0.4698893521E-01  0.1000000000E+01  0.3530110648E+00  0.3308433418E-01  0.7573947498E-18 -0.1183383887E+00  0.6558494894E+15  0.1760661559E-01  0.7189838269E-18 -0.1140572665E+00
  0.0000000000E+00  0.1000000000E+01  0.3530110648E+00 -0.1445426400E-01  0.5202426699E-20 -0.1648164288E-02  0.6558494894E+15 -0.1451866214E-01  0.5672057044E-20  0.3985360721E-03
  0.4000000000E+00  0.1000000000E+01  0.4000000000E+00  0.8698819233E+00  0.7416125372E-17 -0.9133745183E+00  0.6558494894E+15  0.8765383354E+00  0.7425512454E-17 -0.9063075362E+00
  0.3530110648E+00  0.1000000000E+01  0.4000000000E+00  0.6891287233E+00  0.6382319618E-17 -0.8953965941E+00  0.6558494894E+15  0.7010017961E+00  0.6339611646E-17 -0.8834092249E+00
  0.2570463033E+00  0.1000000000E+01  0.4000000000E+00  0.3931070391E+00  0.2755864854E-17 -0.6861202536E+00  0.6558494894E+15  0.4087253815E+00  0.2834910736E-17 -0.6731347606E+00
  0.1429536967E+00  0.1000000000E+01  0.4000000000E+00  0.1427591951E+00  0.2491281443E-17 -0.5280065813E+00  0.6558494894E+15  0.1378075212E+00  0.2561578210E-17 -0.5194154732E+00
  0.4698893521E-01  0.1000000000E+01  0.4000000000E+00  0.3145867270E-01  0.7062698924E-18 -0.1508764414E+00  0.6558494894E+15  0.1530641708E-01  0.6852741334E-18 -0.1451121141E+00
  0.0000000000E+00  0.1000000000E+01  0.4000000000E+00 -0.6904499459E-02  0.8111172343E-20 -0.2893804405E-02  0.6558494894E+15 -0.7125994918E-02  0.8199565648E-20 -0.9764868453E-03
ZONE I=6, J=6, K=1, F=POINT
  0.8000000000E+00  0.1000000000E+01  0.0000000000E+00  0.1985567461E-01 -0.8562590112E-19 -0.1175690173E-01  0.6558494894E+15  0.1952515101E-01 -0.8687431930E-19 -0.1195094968E-01
  0.7530110648E+00  0.1000000000E+01  0.0000000000E+00  0.3999052199E-02  0.1213598439E-18  0.5961989377E-02  0.6558494894E+15  0.3640536314E-02  0.1151864437E-18  0.5843287333E-02
  0.6570463033E+00  0.1000000000E+01  0.0000000000E+00  0.1343137186E-02  0.4739537968E-19  0.2483451641E-03  0.6558494894E+15  0.8273402680E-03  0.3904735157E-19  0.2055562902E-03
  0.5429536967E+00  0.1000000000E+01  0.0000000000E+00  0.2334310658E-02  0.6678428228E-19  0.6970952808E-02  0.6558494894E+15  0.1765997036E-02  0.5059225129E-19  0.6868632284E-02
  0.4469889352E+00  0.1000000000E+01  0.0000000000E+00 -0.6961753021E-03 -0.7057430023E-22  0.7824916015E-03  0.6558494894E+15 -0.1205804455E-02 -0.1686048557E-19  0.6065993413E-03
  0.4000000000E+00  0.1000000000E+01  0.0000000000E+00  0.1603436101E-01  0.3179622210E-19  0.7256408368E-02  0.6558494894E+15  0.1536130173E-01  0.3206758953E-19  0.6791321926E-02
  0.8000000000E+00  0.1000000000E+01  0.4698893521E-01  0.3842420615E+00 -0.2281649613E-16  0.1185411137E-02  0.6558494894E+15  0.3878226678E+00 -0.2285625529E-16  0.1119788344E-01
  0.7530110648E+00  0.1000000000E+01  0.4698893521E-01  0.5715245644E+00 -0.2238246599E-16 -0.5572240913E-01  0.6558494894E+15  0.5750703730E+00 -0.2259145137E-16 -0.4756712014E-01
  0.6570463033E+00  0.1000000000E+01  0.4698893521E-01  0.3380860600E+00 -0.3962184131E-17 -0.1932816620E-01  0.6558494894E+15  0.3406744037E+00 -0.3925056615E-17 -0.1418364074E-01
  0.5429536967E+00  0.1000000000E+01  0.4698893521E-01  0.3551686672E+00  0.4731015544E-17 -0.5904196721E-02  0.6558494894E+15  0.3562400066E+00  0.4752298418E-17 -0.1476078335E-02
  0.4469889352E+00  0.1000000000E+01  0.4698893521E-01  0.2166177363E+00  0.4243448241E-17  0.2081036759E-02  0.6558494894E+15  0.2172130136E+00  0.4235836945E-17  0.6692018745E-02
  0.4000000000E+00  0.1000000000E+01  0.4698893521E-01  0.3175953323E+00  0.3043441720E-17 -0.4300458715E-01  0.6558494894E+15  0.3177899145E+00  0.3042122425E-17 -0.3858730440E-01
  0.8000000000E+00  0.1000000000E+01  0.1429536967E+00  0.1233869824E+01 -0.5145009908E-16 -0.4026474217E+00  0.6558494894E+15  0.1239853921E+01 -0.5126876673E-16 -0.3858716107E+00
  0.7530110648E+00  0.1000000000E+01  0.1429536967E+00  0.1501523127E+01 -0.3162935762E-16 -0.2518770592E+00  0.6558494894E+15  0.1510422671E+01 -0.3179100525E-16 -0.2371847950E+00
  0.6570463033E+00  0.1000000000E+01  0.1429536967E+00  0.1018933868E+01 -0.1871351210E-17 -0.2361530033E+00  0.6558494894E+15  0.1023683837E+01 -0.2055188163E-17 -0.2253139099E+00
  0.5429536967E+00  0.1000000000E+01  0.1429536967E+00  0.9070208797E+00  0.1072475359E-16 -0.8357002956E-01  0.6558494894E+15  0.9082470428E+00  0.1076569997E-16 -0.7336456360E-01
  0.4469889352E+00  0.1000000000E+01  0.1429536967E+00  0.5721414425E+00  0.1046980945E-16 -0.1581705783E+00  0.6558494894E+15  0.5745836697E+00  0.1041630502E-16 -0.1503107429E+00
  0.4000000000E+00  0.1000000000E+01  0.1429536967E+00  0.6828915831E+00  0.1132555316E-16 -0.1315098387E+00  0.6558494894E+15  0.6841807344E+00  0.1134327595E-16 -0.1250804232E+00
  0.8000000000E+00  0.1000000000E+01  0.2570463033E+00  0.2401869284E+01 -0.9788957868E-17 -0.1022476288E+01  0.6558494894E+15  0.2411886559E+01 -0.9767702209E-17 -0.1003837176E+01
  0.7530110648E+00  0.1000000000E+01  0.2570463033E+00  0.2227698735E+01 -0.6129441519E-17 -0.7619095247E+00  0.6558494894E+15  0.2239943306E+01 -0.5933992002E-17 -0.7438881949E+00
  0.6570463033E+00  0.1000000000E+01  0.2570463033E+00  0.1684587153E+01 -0.9028450480E-18 -0.6804400914E+00  0.6558494894E+15  0.1690820722E+01 -0.1074935245E-17 -0.6627162629E+00
  0.5429536967E+00  0.1000000000E+01  0.2570463033E+00  0.1265234754E+01  0.4523925703E-17 -0.3964290946E+00  0.6558494894E+15  0.1268529043E+01  0.4573197031E-17 -0.3810353540E+00
  0.4469889352E+00  0.1000000000E+01  0.2570463033E+00  0.8758315870E+00  0.5271664390E-17 -0.4857748694E+00  0.6558494894E+15  0.8829087592E+00  0.5435118006E-17 -0.4725740323E+00
  0.4000000000E+00  0.1000000000E+01  0.2570463033E+00  0.8069658528E+00  0.5108482619E-17 -0.4303738817E+00  0.6558494894E+15  0.8129442107E+00  0.5117301986E-17 -0.4190082799E+00
  0.8000000000E+00  0.1000000000E+01  0.3530110648E+00  0.2753754782E+01  0.4728324295E-17 -0.1590660158E+01  0.6558494894E+15  0.2768791232E+01  0.4696613419E-17 -0.1569598467E+01
  0.7530110648E+00  0.1000000000E+01  0.3530110648E+00  0.2593459678E+01  0.7962411567E-17 -0.1360047088E+01  0.6558494894E+15  0.2607197196E+01  0.8725933213E-17 -0.1342018326E+01
  0.6570463033E+00  0.1000000000E+01  0.3530110648E+00  0.1969099222E+01  0.1887635297E-17 -0.1144799744E+01  0.6558494894E+15  0.1978067764E+01  0.1412244890E-17 -0.1132348525E+01
  0.5429536967E+00  0.1000000000E+01  0.3530110648E+00  0.1454235410E+01  0.4711069107E-18 -0.7905224383E+00  0.6558494894E+15  0.1459121728E+01  0.1071461160E-18 -0.7818721169E+00
  0.4469889352E+00  0.1000000000E+01  0.3530110648E+00  0.9756715934E+00  0.5176807019E-17 -0.8052309309E+00  0.6558494894E+15  0.9819028949E+00  0.5087101575E-17 -0.7930584544E+00
  0.4000000000E+00  0.1000000000E+01  0.3530110648E+00  0.8961256205E+00  0.5485925930E-17 -0.7481994837E+00  0.6558494894E+15  0.9059365346E+00  0.5477720121E-17 -0.7344343080E+00
  0.8000000000E+00  0.1000000000E+01  0.4000000000E+00  0.2899871034E+01 -0.1800691998E-17 -0.1932094583E+01  0.6558494894E+15  0.2918131425E+01 -0.1796976193E-17 -0.1912819814E+01
  0.7530110648E+00  0.1000000000E+01  0.4000000000E+00  0.2607219417E+01  0.9855741122E-18 -0.1635904163E+01  0.6558494894E+15  0.2626304920E+01  0.1040135489E-17 -0.1622392727E+01
  0.6570463033E+00  0.1000000000E+01  0.4000000000E+00  0.2015971602E+01  0.2272505856E-17 -0.1399341589E+01  0.6558494894E+15  0.2028915145E+01  0.2361119331E-17 -0.1401675470E+01
  0.5429536967E+00  0.1000000000E+01  0.4000000000E+00  0.1473097693E+01  0.8587675091E-17 -0.1044864476E+01  0.6558494894E+15  0.1476776512E+01  0.8556589221E-17 -0.1049724725E+01
  0.4469889352E+00  0.1000000000E+01  0.4000000000E+00  0.1063150150E+01  0.8603577503E-17 -0.9986026660E+00  0.6558494894E+15  0.1065829642E+01  0.8711291612E-17 -0.9958367684E+00
  0.4000000000E+00  0.1000000000E+01  0.4000000000E+00  0.8805145358E+00  0.7437027433E-17 -0.9125889786E+00  0.6558494894E+15  0.8879458824E+00  0.7443802901E-17 -0.9055505246E+00
ZONE I=6, J=6, K=1, F=POINT
  0.1200000000E+01  0.1000000000E+01  0.0000000000E+00 -0.2987278325E-01  0.5694072730E-19  0.3675727676E-01  0.6558494894E+15 -0.2875762483E-01  0.5949141765E-19  0.3643248798E-01
  0.1153011065E+01  0.1000000000E+01  0.0000000000E+00 -0.2521512283E-02 -0.1064855374E-18 -0.9707143326E-02  0.6558494894E+15 -0.1625621553E-02 -0.6112769021E-19 -0.9718254719E-02
  0.1057046303E+01  0.1000000000E+01  0.0000000000E+00  0.4596151307E-02  0.8303692000E-19  0.5852275537E-02  0.6558494894E+15  0.5144697232E-02  0.9534210888E-19  0.5754058612E-02
  0.9429536967E+00  0.1000000000E+01  0.0000000000E+00  0.1534209685E-03  0.3444249185E-20 -0.8259714998E-02  0.6558494894E+15  0.1889876519E-03  0.4920784587E-20 -0.8275219849E-02
  0.8469889352E+00  0.1000000000E+01  0.0000000000E+00  0.5648996767E-02 -0.2173504216E-19  0.5309719708E-02  0.6558494894E+15  0.5517032901E-02 -0.2372413127E-19  0.5174459799E-02
  0.8000000000E+00  0.1000000000E+01  0.0000000000E+00 -0.2559137613E-01 -0.9521006021E-19 -0.1123659298E-01  0.6558494894E+15 -0.2558735174E-01 -0.9656318059E-19 -0.1145574279E-01
  0.1200000000E+01  0.1000000000E+01  0.4698893521E-01  0.2309148361E+01 -0.4201242960E-16 -0.2039765116E+00  0.6558494894E+15  0.2316281570E+01 -0.4230001585E-16 -0.2001871045E+00
  0.1153011065E+01  0.1000000000E+01  0.4698893521E-01  0.1613012121E+01 -0.2582340503E-16 -0.6120373135E-01  0.6558494894E+15  0.1619497070E+01 -0.2602787122E-16 -0.5565794987E-01
  0.1057046303E+01  0.1000000000E+01  0.4698893521E-01  0.1462457721E+01 -0.1149044607E-16 -0.1001537689E+00  0.6558494894E+15  0.1468370834E+01 -0.1140844276E-16 -0.9215274471E-01
  0.9429536967E+00  0.1000000000E+01  0.4698893521E-01  0.8360090219E+00 -0.1392796878E-16 -0.9008050614E-01  0.6558494894E+15  0.8405235031E+00 -0.1404144018E-16 -0.8229731595E-01
  0.8469889352E+00  0.1000000000E+01  0.4698893521E-01  0.7202854844E+00 -0.2693469418E-16 -0.8632641018E-01  0.6558494894E+15  0.7237220495E+00 -0.2709366454E-16 -0.7692413767E-01
  0.8000000000E+00  0.1000000000E+01  0.4698893521E-01  0.3229179725E+00 -0.2211448421E-16  0.3239279942E-02  0.6558494894E+15  0.3271306161E+00 -0.2216774623E-16  0.1320044296E-01
  0.1200000000E+01  0.1000000000E+01  0.1429536967E+00  0.5414391429E+01 -0.5808645513E-16 -0.6568483631E+00  0.6558494894E+15  0.5425044226E+01 -0.5823345616E-16 -0.6348007848E+00
  0.1153011065E+01  0.1000000000E+01  0.1429536967E+00  0.3947442270E+01 -0.6580413451E-16 -0.8707449089E+00  0.6558494894E+15  0.3952619121E+01 -0.6571853505E-16 -0.8489715381E+00
  0.1057046303E+01  0.1000000000E+01  0.1429536967E+00  0.3523785194E+01 -0.3623562766E-16 -0.6634365725E+00  0.6558494894E+15  0.3529884270E+01 -0.3624227350E-16 -0.6429185088E+00
  0.9429536967E+00  0.1000000000E+01  0.1429536967E+00  0.2214625823E+01 -0.3176030797E-16 -0.7737198377E+00  0.6558494894E+15  0.2219580565E+01 -0.3174675766E-16 -0.7540623111E+00
  0.8469889352E+00  0.1000000000E+01  0.1429536967E+00  0.1889136410E+01 -0.4776741542E-16 -0.4239819553E+00  0.6558494894E+15  0.1892019416E+01 -0.4791954321E-16 -0.4058705261E+00
  0.8000000000E+00  0.1000000000E+01  0.1429536967E+00  0.1149509770E+01 -0.5368043476E-16 -0.4042854767E+00  0.6558494894E+15  0.1157189406E+01 -0.5351346181E-16 -0.3874738225E+00
  0.1200000000E+01  0.1000000000E+01  0.2570463033E+00  0.5913141714E+01 -0.6221024686E-17 -0.1802405455E+01  0.6558494894E+15  0.5919594990E+01 -0.6166586927E-17 -0.1770962391E+01
  0.1153011065E+01  0.1000000000E+01  0.2570463033E+00  0.5362378531E+01 -0.3851298314E-16 -0.2065214772E+01  0.6558494894E+15  0.5371105288E+01 -0.3892732683E-16 -0.2035409921E+01
  0.1057046303E+01  0.1000000000E+01  0.2570463033E+00  0.4472024255E+01 -0.2864895759E-16 -0.1692591223E+01  0.6558494894E+15  0.4480886313E+01 -0.2865523973E-16 -0.1666091814E+01
  0.9429536967E+00  0.1000000000E+01  0.2570463033E+00  0.3425085259E+01 -0.2716588240E-16 -0.1746365004E+01  0.6558494894E+15  0.3431880960E+01 -0.2751434763E-16 -0.1721795183E+01
  0.8469889352E+00  0.1000000000E+01  0.2570463033E+00  0.2806535161E+01 -0.1113840526E-16 -0.1102824256E+01  0.6558494894E+15  0.2815019181E+01 -0.1060935097E-16 -0.1082049745E+01
  0.8000000000E+00  0.1000000000E+01  0.2570463033E+00  0.2364143561E+01 -0.9951270106E-17 -0.1025126068E+01  0.6558494894E+15  0.2375016837E+01 -0.9923658825E-17 -0.1006060973E+01
  0.1200000000E+01  0.1000000000E+01  0.3530110648E+00  0.6380593626E+01  0.3107705125E-16 -0.2967745179E+01  0.6558494894E+15  0.6385101209E+01  0.3109137248E-16 -0.2948415099E+01
  0.1153011065E+01  0.1000000000E+01  0.3530110648E+00  0.5634795906E+01  0.1278031683E-16 -0.2922586479E+01  0.6558494894E+15  0.5644479507E+01  0.1267472896E-16 -0.2901750576E+01
  0.1057046303E+01  0.1000000000E+01  0.3530110648E+00  0.4845526866E+01 -0.6162371727E-17 -0.2593127805E+01  0.6558494894E+15  0.4856026170E+01 -0.6481895511E-17 -0.2571689646E+01
  0.9429536967E+00  0.1000000000E+01  0.3530110648E+00  0.3795636684E+01 -0.1203312006E-16 -0.2406797753E+01  0.6558494894E+15  0.3803696341E+01 -0.1247045816E-16 -0.2385292899E+01
  0.8469889352E+00  0.1000000000E+01  0.3530110648E+00  0.3227988585E+01  0.1259931713E-17 -0.1786991058E+01  0.6558494894E+15  0.3239262335E+01  0.1368661404E-17 -0.1764890790E+01
  0.8000000000E+00  0.1000000000E+01  0.3530110648E+00  0.2707050169E+01  0.4776314278E-17 -0.1590968442E+01  0.6558494894E+15  0.2722505400E+01  0.4756418838E-17 -0.1569933200E+01
  0.1200000000E+01  0.1000000000E+01  0.4000000000E+00  0.6173224934E+01  0.3516286696E-16 -0.3303514391E+01  0.6558494894E+15  0.6174954581E+01  0.3515918013E-16 -0.3290434350E+01
  0.1153011065E+01  0.1000000000E+01  0.4000000000E+00  0.5787686601E+01  0.2783410957E-16 -0.3450992147E+01  0.6558494894E+15  0.5795800804E+01  0.2801357830E-16 -0.3438023414E+01
  0.1057046303E+01  0.1000000000E+01  0.4000000000E+00  0.4856170803E+01  0.3887150840E-17 -0.3004491186E+01  0.6558494894E+15  0.4866536270E+01  0.4130939472E-17 -0.2990132515E+01
  0.9429536967E+00  0.1000000000E+01  0.4000000000E+00  0.3919084914E+01 -0.1195916280E-16 -0.2794437447E+01  0.6558494894E+15  0.3925614993E+01 -0.1190797373E-16 -0.2776003627E+01
  0.8469889352E+00  0.1000000000E+01  0.4000000000E+00  0.3227137966E+01 -0.6691061065E-17 -0.2097216123E+01  0.6558494894E+15  0.3238660293E+01 -0.6656477489E-17 -0.2075333356E+01
  0.8000000000E+00  0.1000000000E+01  0.4000000000E+00  0.2894360621E+01 -0.1780875587E-17 -0.1935536096E+01  0.6558494894E+15  0.2913292287E+01 -0.1777014896E-17 -0.1915839897E+01
ZONE I=6, J=6, K=1, F=POINT
  0.1600000000E+01  0.1000000000E+01  0.0000000000E+00  0.1316257544E+00 -0.9407068107E-18 -0.7167380143E-01  0.6558494894E+15  0.1335197375E+00 -0.1048426376E-17 -0.7125221890E-01
  0.1553011065E+01  0.1000000000E+01  0.0000000000E+00  0.1136610877E-01 -0.1361350444E-17  0.4517449376E-01  0.6558494894E+15  0.1363124924E-01 -0.1498337311E-17  0.4505725497E-01
  0.1457046303E+01  0.1000000000E+01  0.0000000000E+00 -0.6217377301E-02 -0.1210716417E-18 -0.3184679534E-02  0.6558494894E+15 -0.4281285252E-02 -0.1828694969E-18 -0.3224156174E-02
  0.1342953697E+01  0.1000000000E+01  0.0000000000E+00  0.6428515689E-02  0.4650868517E-18  0.2976364923E-01  0.6558494894E+15  0.7958508061E-02  0.5516782048E-18  0.2959902993E-01
  0.1246988935E+01  0.1000000000E+01  0.0000000000E+00 -0.6291052176E-02  0.1361137170E-18 -0.8274657670E-02  0.6558494894E+15 -0.5293209286E-02  0.1359574396E-18 -0.8275199433E-02
  0.1200000000E+01  0.1000000000E+01  0.0000000000E+00  0.5959344969E-01  0.6140879760E-19  0.3679285466E-01  0.6558494894E+15  0.6037611881E-01  0.6460764384E-19  0.3646720179E-01
  0.1600000000E+01  0.1000000000E+01  0.4698893521E-01  0.2990856458E+01 -0.8735274516E-16  0.2585683161E+00  0.6558494894E+15  0.2999017109E+01 -0.8754926379E-16  0.2563413202E+00
  0.1553011065E+01  0.1000000000E+01  0.4698893521E-01  0.3513408243E+01 -0.4361087347E-16 -0.2460808622E+00  0.6558494894E+15  0.3522625163E+01 -0.4333097082E-16 -0.2484658076E+00
  0.1457046303E+01  0.1000000000E+01  0.4698893521E-01  0.2585961427E+01 -0.4278056924E-17 -0.6617163949E-01  0.6558494894E+15  0.2594105728E+01 -0.4519251263E-17 -0.6540456345E-01
  0.1342953697E+01  0.1000000000E+01  0.4698893521E-01  0.2615169392E+01  0.2844980112E-16 -0.5212833252E-01  0.6558494894E+15  0.2622538207E+01  0.2851633394E-16 -0.4769214271E-01
  0.1246988935E+01  0.1000000000E+01  0.4698893521E-01  0.2041658039E+01 -0.7170813923E-17 -0.2808157607E-01  0.6558494894E+15  0.2048551793E+01 -0.6879274663E-17 -0.2410903870E-01
  0.1200000000E+01  0.1000000000E+01  0.4698893521E-01  0.2407782929E+01 -0.4623158359E-16 -0.2096754541E+00  0.6558494894E+15  0.2412639505E+01 -0.4648544431E-16 -0.2055021475E+00
  0.1600000000E+01  0.1000000000E+01  0.1429536967E+00  0.6441789856E+01 -0.2671624446E-15 -0.1683674049E+01  0.6558494894E+15  0.6437365408E+01 -0.2664967421E-15 -0.1679568250E+01
  0.1553011065E+01  0.1000000000E+01  0.1429536967E+00  0.8185823895E+01 -0.1423013254E-15 -0.8530343296E+00  0.6558494894E+15  0.8192600760E+01 -0.1427161004E-15 -0.8487188603E+00
  0.1457046303E+01  0.1000000000E+01  0.1429536967E+00  0.6219169574E+01  0.3086781606E-16 -0.8654448615E+00  0.6558494894E+15  0.6222615423E+01  0.3090343597E-16 -0.8564141258E+00
  0.1342953697E+01  0.1000000000E+01  0.1429536967E+00  0.6231709380E+01  0.9979035167E-16 -0.1967954642E+00  0.6558494894E+15  0.6235466963E+01  0.9995407590E-16 -0.1808410401E+00
  0.1246988935E+01  0.1000000000E+01  0.1429536967E+00  0.4867705045E+01  0.2592080957E-16 -0.7788124086E+00  0.6558494894E+15  0.4874459921E+01  0.2547122338E-16 -0.7570571927E+00
  0.1200000000E+01  0.1000000000E+01  0.1429536967E+00  0.5581897675E+01 -0.6225123287E-16 -0.6512647690E+00  0.6558494894E+15  0.5581438597E+01 -0.6227822549E-16 -0.6300002905E+00
  0.1600000000E+01  0.1000000000E+01  0.2570463033E+00  0.1153400882E+02  0.1040049323E-15 -0.3409362114E+01  0.6558494894E+15  0.1155505800E+02  0.1039930460E-15 -0.3405163863E+01
  0.1553011065E+01  0.1000000000E+01  0.2570463033E+00  0.1052252296E+02  0.1263645648E-15 -0.2336001797E+01  0.6558494894E+15  0.1052761202E+02  0.1264083919E-15 -0.2325097772E+01
  0.1457046303E+01  0.1000000000E+01  0.2570463033E+00  0.9247561664E+01  0.1835069813E-15 -0.2265705094E+01  0.6558494894E+15  0.9244663280E+01  0.1832379165E-15 -0.2249328835E+01
  0.1342953697E+01  0.1000000000E+01  0.2570463033E+00  0.7657109014E+01  0.1306748314E-15 -0.1215278657E+01  0.6558494894E+15  0.7654727299E+01  0.1305196529E-15 -0.1193205397E+01
  0.1246988935E+01  0.1000000000E+01  0.2570463033E+00  0.6399883160E+01  0.4197873919E-16 -0.2016563141E+01  0.6558494894E+15  0.6399948741E+01  0.4234650537E-16 -0.1987334051E+01
  0.1200000000E+01  0.1000000000E+01  0.2570463033E+00  0.5953913133E+01 -0.6501667009E-17 -0.1792577157E+01  0.6558494894E+15  0.5960075314E+01 -0.6454535912E-17 -0.1764039541E+01
  0.1600000000E+01  0.1000000000E+01  0.3530110648E+00  0.1015404785E+02  0.2081909441E-15 -0.3815897321E+01  0.6558494894E+15  0.1016304150E+02  0.2080710408E-15 -0.3798813258E+01
  0.1553011065E+01  0.1000000000E+01  0.3530110648E+00  0.1040803798E+02  0.2098799589E-15 -0.3759078877E+01  0.6558494894E+15  0.1040728467E+02  0.2098564806E-15 -0.3741189889E+01
  0.1457046303E+01  0.1000000000E+01  0.3530110648E+00  0.9275469226E+01  0.1953159173E-15 -0.3418611772E+01  0.6558494894E+15  0.9269724166E+01  0.1946058197E-15 -0.3399443180E+01
  0.1342953697E+01  0.1000000000E+01  0.3530110648E+00  0.8018786170E+01  0.1451292656E-15 -0.2735421111E+01  0.6558494894E+15  0.8014006103E+01  0.1448268902E-15 -0.2716654977E+01
  0.1246988935E+01  0.1000000000E+01  0.3530110648E+00  0.6593228152E+01  0.6049249482E-16 -0.2998129329E+01  0.6558494894E+15  0.6589822045E+01  0.6054244463E-16 -0.2979374620E+01
  0.1200000000E+01  0.1000000000E+01  0.3530110648E+00  0.6458699213E+01  0.3119991797E-16 -0.2968037731E+01  0.6558494894E+15  0.6458998808E+01  0.3117982595E-16 -0.2948444582E+01
  0.1600000000E+01  0.1000000000E+01  0.4000000000E+00  0.1038520939E+02  0.2096018354E-15 -0.4490738704E+01  0.6558494894E+15  0.1039913354E+02  0.2094843614E-15 -0.4464698022E+01
  0.1553011065E+01  0.1000000000E+01  0.4000000000E+00  0.9787474329E+01  0.2206468186E-15 -0.3755659083E+01  0.6558494894E+15  0.9789148558E+01  0.2205263233E-15 -0.3728618180E+01
  0.1457046303E+01  0.1000000000E+01  0.4000000000E+00  0.9232193634E+01  0.1861859921E-15 -0.3946699706E+01  0.6558494894E+15  0.9226672952E+01  0.1863060928E-15 -0.3923534115E+01
  0.1342953697E+01  0.1000000000E+01  0.4000000000E+00  0.7831212970E+01  0.1512149264E-15 -0.3152856000E+01  0.6558494894E+15  0.7829064371E+01  0.1510986870E-15 -0.3137255044E+01
  0.1246988935E+01  0.1000000000E+01  0.4000000000E+00  0.6774971378E+01  0.5929646823E-16 -0.3588185418E+01  0.6558494894E+15  0.6770916140E+01  0.5945897950E-16 -0.3573643697E+01
  0.1200000000E+01  0.1000000000E+01  0.4000000000E+00  0.6146460277E+01  0.3543570980E-16 -0.3291107983E+01  0.6558494894E+15  0.6150396245E+01  0.3541116356E-16 -0.3280943056E+01
ZONE I=6, J=6, K=1, F=POINT
  0.2000000000E+01  0.1000000000E+01  0.0000000000E+00  0.2401784447E+01  0.7372507912E-19  0.2123369829E+02  0.6558494893E+15  0.2430144168E+01  0.9537899608E-19  0.2215539955E+02
  0.1953011065E+01  0.1000000000E+01  0.0000000000E+00  0.1292458608E+01 -0.3733752201E-16 -0.1380512703E+00  0.6558494894E+15  0.1300036469E+01 -0.3616645688E-16 -0.1505187866E+00
  0.1857046303E+01  0.1000000000E+01  0.0000000000E+00 -0.3057209373E+00 -0.1873580343E-16  0.1521102732E+00  0.6558494894E+15 -0.3025064486E+00 -0.1901977088E-16  0.1503918838E+00
  0.1742953697E+01  0.1000000000E+01  0.0000000000E+00  0.1353090851E+00  0.2164536558E-18 -0.3710744848E-01  0.6558494894E+15  0.1388964009E+00  0.1120783152E-18 -0.3683746696E-01
  0.1646988935E+01  0.1000000000E+01  0.0000000000E+00 -0.1257920428E+00  0.3009395127E-18  0.6050595322E-01  0.6558494894E+15 -0.1224278156E+00  0.2642953753E-18  0.5959741257E-01
  0.1600000000E+01  0.1000000000E+01  0.0000000000E+00  0.8967875922E-01 -0.1020332295E-17 -0.8371670316E-01  0.6558494894E+15  0.9144061465E-01 -0.1130163709E-17 -0.8196447159E-01
  0.2000000000E+01  0.1000000000E+01  0.4698893521E-01 -0.1309972508E-01  0.7492499814E-18  0.4848319280E+02  0.6558494894E+15 -0.5523313209E-01  0.6880323902E-18  0.4866188876E+02
  0.1953011065E+01  0.1000000000E+01  0.4698893521E-01  0.1094428359E+02  0.1352567488E-15  0.1451246993E+01  0.6558494894E+15  0.1094506168E+02  0.1341728717E-15  0.1481449283E+01
  0.1857046303E+01  0.1000000000E+01  0.4698893521E-01  0.1158706453E+02  0.2853905910E-15 -0.1902810703E+01  0.6558494894E+15  0.1160318332E+02  0.2866861293E-15 -0.1887023679E+01
  0.1742953697E+01  0.1000000000E+01  0.4698893521E-01  0.5689380934E+01 -0.4278050685E-16 -0.6322559429E+00  0.6558494894E+15  0.5706337126E+01 -0.4248294479E-16 -0.6243805528E+00
  0.1646988935E+01  0.1000000000E+01  0.4698893521E-01  0.4432863277E+01 -0.1211767944E-15 -0.6012259217E+00  0.6558494894E+15  0.4446454574E+01 -0.1220924191E-15 -0.5991867879E+00
  0.1600000000E+01  0.1000000000E+01  0.4698893521E-01  0.2826071769E+01 -0.8449542510E-16  0.2443714079E+00  0.6558494894E+15  0.2843556507E+01 -0.8450836052E-16  0.2368755617E+00
  0.2000000000E+01  0.1000000000E+01  0.1429536967E+00 -0.2817956262E+00  0.2742124115E-17  0.5050445943E+02  0.6558494894E+15 -0.2577401579E+00  0.2759970001E-17  0.5044563031E+02
  0.1953011065E+01  0.1000000000E+01  0.1429536967E+00  0.2767373976E+01 -0.5118817133E-15  0.1633647939E+02  0.6558494894E+15  0.2762793307E+01 -0.5109938272E-15  0.1639053095E+02
  0.1857046303E+01  0.1000000000E+01  0.1429536967E+00  0.1263279083E+02 -0.2619006441E-15 -0.3674488524E+01  0.6558494894E+15  0.1264344649E+02 -0.2627494384E-15 -0.3644330633E+01
  0.1742953697E+01  0.1000000000E+01  0.1429536967E+00  0.9915552771E+01 -0.3683208050E-16 -0.4020406946E+01  0.6558494894E+15  0.9940126226E+01 -0.3491714044E-16 -0.4002510137E+01
  0.1646988935E+01  0.1000000000E+01  0.1429536967E+00  0.9362908979E+01 -0.1618696973E-15 -0.1950567182E+01  0.6558494894E+15  0.9388337885E+01 -0.1615267162E-15 -0.1941397158E+01
  0.1600000000E+01  0.1000000000E+01  0.1429536967E+00  0.6069392848E+01 -0.2838193246E-15 -0.1684064558E+01  0.6558494894E+15  0.6105508886E+01 -0.2834830623E-15 -0.1684257105E+01
  0.2000000000E+01  0.1000000000E+01  0.2570463033E+00  0.1893971820E-01  0.1137752160E-17  0.4987476221E+02  0.6558494894E+15  0.1806106959E-01  0.1107244974E-17  0.4988322931E+02