TITLE = "Generated from ../MESH/Convergence_0000000000.hmesh and Convergence_0000009200.hsol"
VARIABLES = "x","y","z","veloT_x","veloT_y","veloT_z","slr_4","velo_x","velo_y","velo_z"
ZONE I=6, J=6, K=1, F=POINT
  0.4000000000E+00  0.1000000000E+01  0.0000000000E+00 -0.1586396045E+00  0.2174528011E-20  0.9032917548E-02  0.1887699885E+16 -0.1659855961E+00 -0.5566549527E-19  0.1137005805E-01
  0.3530110648E+00  0.1000000000E+01  0.0000000000E+00 -0.1569342404E+00  0.5284339080E-19  0.1821793698E-02  0.1887699885E+16 -0.1542986939E+00  0.1287336659E-19  0.3149398077E-02
  0.2570463033E+00  0.1000000000E+01  0.0000000000E+00 -0.1264333005E+00  0.2245883767E-19  0.6140602366E-02  0.1887699885E+16 -0.1182059190E+00  0.4068529490E-20  0.7234016427E-02
  0.1429536967E+00  0.1000000000E+01  0.0000000000E+00 -0.1170177416E+00  0.7141818543E-20 -0.5965699924E-03  0.1887699885E+16 -0.1111847647E+00  0.4931070483E-20 -0.2728201100E-02
  0.4698893521E-01  0.1000000000E+01  0.0000000000E+00 -0.8463384893E-01 -0.2341351153E-20  0.1093119366E-01  0.1887699885E+16 -0.8614340667E-01 -0.1522462774E-19  0.1643358356E-01
  0.0000000000E+00  0.1000000000E+01  0.0000000000E+00 -0.1556750129E-01  0.5238097470E-22  0.1032478217E-01  0.1887699885E+16 -0.1974778885E-01  0.1870202351E-21  0.1385088171E-01
  0.4000000000E+00  0.1000000000E+01  0.4698893521E-01  0.1027244753E+00  0.4451193963E-17 -0.7640591410E+00  0.1887699885E+16 -0.2193810452E+00  0.6276501485E-17 -0.2602630659E+00
  0.3530110648E+00  0.1000000000E+01  0.4698893521E-01 -0.7323207371E-01  0.6123175255E-17 -0.6291777916E+00  0.1887699885E+16 -0.3470092995E+00  0.8395015630E-17 -0.1264364042E+00
  0.2570463033E+00  0.1000000000E+01  0.4698893521E-01 -0.8926305553E-01  0.1002901818E-17 -0.4503466513E+00  0.1887699885E+16 -0.2815830795E+00  0.1881422768E-17 -0.2530149300E-01
  0.1429536967E+00  0.1000000000E+01  0.4698893521E-01 -0.1868475332E+00 -0.1997617501E-18 -0.2078949724E+00  0.1887699885E+16 -0.3663304831E+00 -0.4666850082E-18  0.1444690313E+00
  0.4698893521E-01  0.1000000000E+01  0.4698893521E-01 -0.1326921192E+00  0.2509164546E-19  0.1561620230E-01  0.1887699885E+16 -0.2690023473E+00 -0.2460868204E-18  0.2399296244E+00
  0.0000000000E+00  0.1000000000E+01  0.4698893521E-01 -0.2587849612E-01  0.3076053621E-20  0.8563945570E-01  0.1887699885E+16 -0.3141938949E-01  0.5417794286E-20  0.8990700465E-01
  0.4000000000E+00  0.1000000000E+01  0.1429536967E+00  0.2857837130E+00  0.5068798231E-17 -0.1128478001E+01  0.1887699885E+16 -0.6450567435E-01  0.5530961863E-18 -0.5494345919E+00
  0.3530110648E+00  0.1000000000E+01  0.1429536967E+00 -0.7516402252E-01  0.1310298372E-16 -0.1070381269E+01  0.1887699885E+16 -0.2529045047E+00  0.9553577470E-17 -0.5225042799E+00
  0.2570463033E+00  0.1000000000E+01  0.1429536967E+00 -0.1750449589E+00  0.2682162803E-17 -0.7551532981E+00  0.1887699885E+16 -0.3118602613E+00  0.2950416507E-17 -0.2785006753E+00
  0.1429536967E+00  0.1000000000E+01  0.1429536967E+00 -0.4520320887E+00  0.1147941519E-17 -0.4169911297E+00  0.1887699885E+16 -0.5215001057E+00  0.1386510132E-17 -0.6661584626E-02
  0.4698893521E-01  0.1000000000E+01  0.1429536967E+00 -0.3853902322E+00  0.2562576785E-18  0.2926818286E-01  0.1887699885E+16 -0.3289991798E+00 -0.8572971044E-18  0.2586427808E+00
  0.0000000000E+00  0.1000000000E+01  0.1429536967E+00 -0.2063969389E-01  0.1048349893E-19  0.9933768949E-01  0.1887699885E+16 -0.1703823742E-01  0.2199400783E-19  0.9175301955E-01
  0.4000000000E+00  0.1000000000E+01  0.2570463033E+00  0.4124405268E+00  0.4648615485E-17 -0.1271897194E+01  0.1887699885E+16 -0.1031472160E+00  0.4244036246E-17 -0.9257486918E+00
  0.3530110648E+00  0.1000000000E+01  0.2570463033E+00  0.8856354273E-02 -0.6016317024E-17 -0.1230867692E+01  0.1887699885E+16 -0.1737926091E+00  0.5210847772E-18 -0.7744620039E+00
  0.2570463033E+00  0.1000000000E+01  0.2570463033E+00 -0.2943752009E+00  0.3025334505E-17 -0.9161924714E+00  0.1887699885E+16 -0.3856962524E+00  0.2888445512E-17 -0.4569120156E+00
  0.1429536967E+00  0.1000000000E+01  0.2570463033E+00 -0.7637812980E+00  0.2113031253E-17 -0.5324090075E+00  0.1887699885E+16 -0.6706520877E+00  0.2015184241E-17 -0.2160188463E+00
  0.4698893521E-01  0.1000000000E+01  0.2570463033E+00 -0.6746099705E+00  0.2254818222E-17  0.2625584203E-01  0.1887699885E+16 -0.4147724981E+00  0.3818224494E-17  0.1484627155E+00
  0.0000000000E+00  0.1000000000E+01  0.2570463033E+00 -0.1488688607E-01 -0.2276365392E-19  0.8491521737E-01  0.1887699885E+16 -0.1259349036E-01 -0.3049812998E-19  0.5504016648E-01
  0.4000000000E+00  0.1000000000E+01  0.3530110648E+00  0.2715401107E+00  0.4573701892E-17 -0.1898457770E+01  0.1887699885E+16 -0.6520833441E+00  0.5067273038E-17 -0.1124207897E+01
  0.3530110648E+00  0.1000000000E+01  0.3530110648E+00 -0.6482932692E-01  0.3609809098E-17 -0.1710398723E+01  0.1887699885E+16 -0.3456947074E+00  0.3999118280E-17 -0.9058588596E+00
  0.2570463033E+00  0.1000000000E+01  0.3530110648E+00 -0.4598459949E+00  0.1056066899E-16 -0.1255360143E+01  0.1887699885E+16 -0.4194600257E+00  0.1094799648E-17 -0.5984397900E+00
  0.1429536967E+00  0.1000000000E+01  0.3530110648E+00 -0.1101541201E+01  0.3669041777E-17 -0.6888515929E+00  0.1887699885E+16 -0.7767076551E+00  0.5501267615E-18 -0.3237719173E+00
  0.4698893521E-01  0.1000000000E+01  0.3530110648E+00 -0.8966602783E+00 -0.6385955693E-18  0.4435477520E-02  0.1887699885E+16 -0.4387098981E+00 -0.1319123246E-17  0.8342599177E-01
  0.0000000000E+00  0.1000000000E+01  0.3530110648E+00 -0.1453701162E-01 -0.9208544347E-20  0.8792337652E-01  0.1887699885E+16 -0.1050588216E-01  0.7265716040E-20  0.3256596881E-01
  0.4000000000E+00  0.1000000000E+01  0.4000000000E+00  0.1292134040E+00  0.4297453917E-17 -0.2464393888E+01  0.1887699885E+16 -0.6804046825E+00  0.3705680796E-17 -0.1141336146E+01
  0.3530110648E+00  0.1000000000E+01  0.4000000000E+00 -0.1378021493E+00  0.7439789502E-17 -0.2100036951E+01  0.1887699885E+16 -0.2892794219E+00  0.5709466614E-17 -0.1111654495E+01
  0.2570463033E+00  0.1000000000E+01  0.4000000000E+00 -0.5793375864E+00 -0.2797177728E-17 -0.1462242927E+01  0.1887699885E+16 -0.4222682260E+00 -0.2543459232E-18 -0.8497071412E+00
  0.1429536967E+00  0.1000000000E+01  0.4000000000E+00 -0.1274965602E+01 -0.1479773290E-19 -0.7933300903E+00  0.1887699885E+16 -0.8041668657E+00  0.2903576101E-17 -0.4959058429E+00
  0.4698893521E-01  0.1000000000E+01  0.4000000000E+00 -0.1021863485E+01 -0.1740227252E-18 -0.4068232188E-01  0.1887699885E+16 -0.4459789317E+00 -0.4617116645E-19 -0.4216892796E-01
  0.0000000000E+00  0.1000000000E+01  0.4000000000E+00 -0.4808927420E-02  0.2730122196E-19  0.6665653992E-01  0.1887699885E+16 -0.8427725043E-04  0.2924064730E-19 -0.1816284698E-02
ZONE I=6, J=6, K=1, F=POINT
  0.8000000000E+00  0.1000000000E+01  0.0000000000E+00 -0.2365466958E+00 -0.4262222816E-19 -0.1026053087E-01  0.1887699885E+16 -0.2960187990E+00 -0.2312728939E-18 -0.6921103717E-02
  0.7530110648E+00  0.1000000000E+01  0.0000000000E+00 -0.2493504363E+00 -0.5408495612E-17  0.9215544270E-02  0.1887699885E+16 -0.2964027479E+00 -0.6841981443E-17  0.1270378382E-01
  0.6570463033E+00  0.1000000000E+01  0.0000000000E+00 -0.2332949074E+00 -0.3083336056E-17  0.6032305526E-02  0.1887699885E+16 -0.2612969748E+00 -0.3349883172E-17  0.9981978537E-02
  0.5429536967E+00  0.1000000000E+01  0.0000000000E+00 -0.1919110550E+00 -0.5060590880E-17  0.1447430218E-01  0.1887699885E+16 -0.2119806175E+00 -0.5515091516E-17  0.1832537808E-01
  0.4469889352E+00  0.1000000000E+01  0.0000000000E+00 -0.1604834151E+00 -0.4903340274E-17  0.7003540520E-02  0.1887699885E+16 -0.1763609005E+00 -0.5400540512E-17  0.1042263898E-01
  0.4000000000E+00  0.1000000000E+01  0.0000000000E+00 -0.1333058130E+00  0.8819445891E-20  0.8668931051E-02  0.1887699885E+16 -0.1410123127E+00 -0.4877872623E-19  0.1100673065E-01
  0.8000000000E+00  0.1000000000E+01  0.4698893521E-01  0.3612676718E+00 -0.2192992986E-16 -0.9298146138E+00  0.1887699885E+16 -0.3135721615E+00 -0.1372944561E-16 -0.5583362807E+00
  0.7530110648E+00  0.1000000000E+01  0.4698893521E-01  0.5094127937E+00 -0.1187732660E-16 -0.1007686469E+01  0.1887699885E+16 -0.9543057578E-01  0.2187717750E-16 -0.6155485521E+00
  0.6570463033E+00  0.1000000000E+01  0.4698893521E-01  0.2364236252E+00 -0.7087571894E-17 -0.9948218142E+00  0.1887699885E+16 -0.2608418087E+00 -0.1248433259E-16 -0.6398644624E+00
  0.5429536967E+00  0.1000000000E+01  0.4698893521E-01  0.2183257561E+00  0.1443190072E-17 -0.9616433290E+00  0.1887699885E+16 -0.2196135381E+00 -0.5792111176E-17 -0.6097234099E+00
  0.4469889352E+00  0.1000000000E+01  0.4698893521E-01  0.5012671145E-01  0.6306891767E-17 -0.8155328634E+00  0.1887699885E+16 -0.3351342474E+00  0.8251946237E-17 -0.3627021531E+00
  0.4000000000E+00  0.1000000000E+01  0.4698893521E-01  0.1460243357E+00  0.4201775299E-17 -0.7649722520E+00  0.1887699885E+16 -0.1777035410E+00  0.6084267144E-17 -0.2610644624E+00
  0.8000000000E+00  0.1000000000E+01  0.1429536967E+00  0.1505987753E+01 -0.5300000759E-16 -0.1525778482E+01  0.1887699885E+16  0.6990780507E+00 -0.7477227548E-16 -0.1317603741E+01
  0.7530110648E+00  0.1000000000E+01  0.1429536967E+00  0.1671299293E+01 -0.2366414911E-16 -0.1417460333E+01  0.1887699885E+16  0.9857904251E+00 -0.2076851139E-16 -0.1141029309E+01
  0.6570463033E+00  0.1000000000E+01  0.1429536967E+00  0.1032559654E+01  0.5633811573E-17 -0.1391521214E+01  0.1887699885E+16  0.4869709646E+00  0.2792687307E-16 -0.9876470043E+00
  0.5429536967E+00  0.1000000000E+01  0.1429536967E+00  0.7956223941E+00  0.3396977493E-17 -0.1159556368E+01  0.1887699885E+16  0.2840242259E+00 -0.1088833422E-16 -0.6433863348E+00
  0.4469889352E+00  0.1000000000E+01  0.1429536967E+00  0.3276387933E+00  0.1775460871E-16 -0.1192707703E+01  0.1887699885E+16 -0.1251886963E+00  0.1805989290E-16 -0.6202613044E+00
  0.4000000000E+00  0.1000000000E+01  0.1429536967E+00  0.3370703589E+00  0.5808100383E-17 -0.1128251937E+01  0.1887699885E+16 -0.1215215185E-01  0.1122709971E-17 -0.5490717295E+00
  0.8000000000E+00  0.1000000000E+01  0.2570463033E+00  0.2942376644E+01 -0.1048300050E-16 -0.2211120938E+01  0.1887699885E+16  0.2000836035E+01 -0.1289099857E-16 -0.2065788525E+01
  0.7530110648E+00  0.1000000000E+01  0.2570463033E+00  0.2562138413E+01 -0.2166456304E-16 -0.1953916688E+01  0.1887699885E+16  0.1777770710E+01 -0.1536751007E-16 -0.1788061542E+01
  0.6570463033E+00  0.1000000000E+01  0.2570463033E+00  0.1729430729E+01  0.6782313743E-17 -0.1816751159E+01  0.1887699885E+16  0.1211359364E+01  0.2100287625E-16 -0.1818745697E+01
  0.5429536967E+00  0.1000000000E+01  0.2570463033E+00  0.1185070778E+01  0.5550849846E-18 -0.1452910703E+01  0.1887699885E+16  0.5865178875E+00 -0.9326482093E-17 -0.1637382253E+01
  0.4469889352E+00  0.1000000000E+01  0.2570463033E+00  0.6864276512E+00 -0.4902629929E-17 -0.1405230613E+01  0.1887699885E+16 -0.1723646458E-01 -0.2608249118E-17 -0.1281394244E+01
  0.4000000000E+00  0.1000000000E+01  0.2570463033E+00  0.4422242053E+00  0.4648256910E-17 -0.1271301001E+01  0.1887699885E+16 -0.7159772121E-01  0.4150900844E-17 -0.9252306702E+00
  0.8000000000E+00  0.1000000000E+01  0.3530110648E+00  0.3496500669E+01  0.3724747453E-18 -0.3452062344E+01  0.1887699885E+16  0.2421023083E+01  0.1039134521E-17 -0.2668710011E+01
  0.7530110648E+00  0.1000000000E+01  0.3530110648E+00  0.3013374576E+01 -0.5116087789E-17 -0.3260163800E+01  0.1887699885E+16  0.2277586586E+01 -0.4551386177E-16 -0.2396406638E+01
  0.6570463033E+00  0.1000000000E+01  0.3530110648E+00  0.2242503642E+01  0.3053695562E-16 -0.3286983759E+01  0.1887699885E+16  0.2102856171E+01  0.2461234740E-16 -0.2555400606E+01
  0.5429536967E+00  0.1000000000E+01  0.3530110648E+00  0.1318086816E+01  0.4607504079E-16 -0.3212754578E+01  0.1887699885E+16  0.6914256113E+00  0.8009037675E-16 -0.2753346621E+01
  0.4469889352E+00  0.1000000000E+01  0.3530110648E+00  0.3323059454E+00  0.1381118274E-16 -0.2393022166E+01  0.1887699885E+16 -0.9247876769E+00  0.4788545910E-17 -0.1759961528E+01
  0.4000000000E+00  0.1000000000E+01  0.3530110648E+00  0.3073544099E+00  0.4479673345E-17 -0.1899620016E+01  0.1887699885E+16 -0.6120364648E+00  0.5214189603E-17 -0.1125524385E+01
  0.8000000000E+00  0.1000000000E+01  0.4000000000E+00  0.3870384885E+01 -0.1184228044E-16 -0.3949643356E+01  0.1887699885E+16  0.2620606029E+01 -0.1171740551E-16 -0.2778248191E+01
  0.7530110648E+00  0.1000000000E+01  0.4000000000E+00  0.3112726018E+01 -0.6594191006E-18 -0.3857220325E+01  0.1887699885E+16  0.2225201468E+01 -0.1092123623E-16 -0.2403510120E+01
  0.6570463033E+00  0.1000000000E+01  0.4000000000E+00  0.2677997435E+01 -0.1423068859E-16 -0.4259747665E+01  0.1887699885E+16  0.2510908776E+01 -0.7460881244E-17 -0.2164525366E+01
  0.5429536967E+00  0.1000000000E+01  0.4000000000E+00  0.1235071881E+01 -0.3317521407E-16 -0.4581243456E+01  0.1887699885E+16  0.6701129690E+00 -0.2275484605E-16 -0.2263056017E+01
  0.4469889352E+00  0.1000000000E+01  0.4000000000E+00 -0.2366906990E+00 -0.1863771946E-16 -0.3266156860E+01  0.1887699885E+16 -0.1412080870E+01 -0.5477647478E-16 -0.1516794454E+01
  0.4000000000E+00  0.1000000000E+01  0.4000000000E+00  0.1449525106E+00  0.4310074785E-17 -0.2465905977E+01  0.1887699885E+16 -0.6574029778E+00  0.3974634846E-17 -0.1143205496E+01
ZONE I=6, J=6, K=1, F=POINT
  0.1200000000E+01  0.1000000000E+01  0.0000000000E+00 -0.2704932571E+00  0.1216673626E-18  0.3358526724E-01  0.1887699885E+16 -0.4423981644E+00 -0.4665793902E-19  0.3772208852E-01
  0.1153011065E+01  0.1000000000E+01  0.0000000000E+00 -0.2511456061E+00 -0.1077467026E-16 -0.1157297757E-01  0.1887699885E+16 -0.4116517031E+00 -0.1908711458E-16 -0.8093735874E-02
  0.1057046303E+01  0.1000000000E+01  0.0000000000E+00 -0.2538351556E+00 -0.6628358276E-17  0.5539163224E-02  0.1887699885E+16 -0.3876394744E+00 -0.1004981476E-16  0.9361032955E-02
  0.9429536967E+00  0.1000000000E+01  0.0000000000E+00 -0.2618991257E+00  0.8830559120E-19 -0.8064607351E-02  0.1887699885E+16 -0.3622674572E+00 -0.2373969840E-18 -0.4352781676E-02
  0.8469889352E+00  0.1000000000E+01  0.0000000000E+00 -0.2541391856E+00  0.2364877611E-19  0.7068671836E-02  0.1887699885E+16 -0.3269231648E+00 -0.3535454521E-19  0.1068632381E-01
  0.8000000000E+00  0.1000000000E+01  0.0000000000E+00 -0.2825278125E+00 -0.6175520809E-19 -0.9744308927E-02  0.1887699885E+16 -0.3419351399E+00 -0.2670457755E-18 -0.6413170709E-02
  0.1200000000E+01  0.1000000000E+01  0.4698893521E-01  0.2567556155E+01 -0.4825783613E-16 -0.4814987005E+00  0.1887699885E+16  0.1583702802E+01 -0.4692551109E-17 -0.8751095223E+00
  0.1153011065E+01  0.1000000000E+01  0.4698893521E-01  0.1872622171E+01 -0.2980130363E-16 -0.4172862385E+00  0.1887699885E+16  0.8861720928E+00  0.1316320307E-17 -0.7181171541E+00
  0.1057046303E+01  0.1000000000E+01  0.4698893521E-01  0.1654798601E+01 -0.1234953102E-16 -0.6579322538E+00  0.1887699885E+16  0.7318702791E+00 -0.2348655752E-16 -0.7482909517E+00
  0.9429536967E+00  0.1000000000E+01  0.4698893521E-01  0.9350183013E+00 -0.1403968878E-16 -0.8298564599E+00  0.1887699885E+16  0.1065412984E+00  0.8773867809E-17 -0.7069017344E+00
  0.8469889352E+00  0.1000000000E+01  0.4698893521E-01  0.7509480111E+00 -0.2246848372E-16 -0.9665575367E+00  0.1887699885E+16  0.9505927550E-02  0.1012877906E-16 -0.6621129797E+00
  0.8000000000E+00  0.1000000000E+01  0.4698893521E-01  0.3001480885E+00 -0.2126643433E-16 -0.9274138210E+00  0.1887699885E+16 -0.3738738957E+00 -0.1286196613E-16 -0.5561700778E+00
  0.1200000000E+01  0.1000000000E+01  0.1429536967E+00  0.6098909182E+01 -0.7037578882E-16 -0.9402911696E+00  0.1887699885E+16  0.4937820280E+01 -0.3987652294E-16 -0.1642531043E+01
  0.1153011065E+01  0.1000000000E+01  0.1429536967E+00  0.4714353911E+01 -0.4857534640E-16 -0.1258789059E+01  0.1887699885E+16  0.3474811850E+01 -0.1139646006E-15 -0.1856833273E+01
  0.1057046303E+01  0.1000000000E+01  0.1429536967E+00  0.4216786140E+01 -0.3954875543E-16 -0.1299907352E+01  0.1887699885E+16  0.3056600013E+01 -0.3720478442E-16 -0.1648484638E+01
  0.9429536967E+00  0.1000000000E+01  0.1429536967E+00  0.2735151954E+01 -0.3395057657E-16 -0.1687246457E+01  0.1887699885E+16  0.1687357304E+01 -0.3337335583E-16 -0.1770391561E+01
  0.8469889352E+00  0.1000000000E+01  0.1429536967E+00  0.2274895438E+01 -0.4452274857E-16 -0.1489025968E+01  0.1887699885E+16  0.1322445077E+01 -0.2366225949E-16 -0.1365315504E+01
  0.8000000000E+00  0.1000000000E+01  0.1429536967E+00  0.1419290760E+01 -0.5506227147E-16 -0.1527111961E+01  0.1887699885E+16  0.6154665240E+00 -0.7733967741E-16 -0.1319261699E+01
  0.1200000000E+01  0.1000000000E+01  0.2570463033E+00  0.7085357698E+01 -0.2572587413E-16 -0.2110999411E+01  0.1887699885E+16  0.5744168602E+01 -0.2555515599E-16 -0.2751043606E+01
  0.1153011065E+01  0.1000000000E+01  0.2570463033E+00  0.6630234417E+01 -0.1151364357E-15 -0.2487907204E+01  0.1887699885E+16  0.5139932642E+01  0.3517280517E-16 -0.3044278827E+01
  0.1057046303E+01  0.1000000000E+01  0.2570463033E+00  0.5690573339E+01 -0.3568998841E-16 -0.2373957853E+01  0.1887699885E+16  0.4227460639E+01 -0.3799319146E-16 -0.2665767614E+01
  0.9429536967E+00  0.1000000000E+01  0.2570463033E+00  0.4395773401E+01 -0.5120413447E-16 -0.2707115478E+01  0.1887699885E+16  0.3129085166E+01  0.1643628204E-16 -0.2687957201E+01
  0.8469889352E+00  0.1000000000E+01  0.2570463033E+00  0.3501941171E+01 -0.2028992386E-16 -0.2247380110E+01  0.1887699885E+16  0.2418212453E+01 -0.5391038570E-16 -0.2129147874E+01
  0.8000000000E+00  0.1000000000E+01  0.2570463033E+00  0.2901495675E+01 -0.1129724621E-16 -0.2213985889E+01  0.1887699885E+16  0.1961324379E+01 -0.1285528524E-16 -0.2067958218E+01
  0.1200000000E+01  0.1000000000E+01  0.3530110648E+00  0.7944337983E+01  0.2771959474E-17 -0.3418056689E+01  0.1887699885E+16  0.6425349239E+01  0.3417880274E-17 -0.3960098778E+01
  0.1153011065E+01  0.1000000000E+01  0.3530110648E+00  0.7348359413E+01 -0.2157179641E-16 -0.3528556827E+01  0.1887699885E+16  0.5619223733E+01  0.9800696505E-18 -0.3952072353E+01
  0.1057046303E+01  0.1000000000E+01  0.3530110648E+00  0.6488562520E+01 -0.1349158438E-16 -0.3548966380E+01  0.1887699885E+16  0.4666163110E+01 -0.1003806016E-16 -0.3635328959E+01
  0.9429536967E+00  0.1000000000E+01  0.3530110648E+00  0.5182856731E+01 -0.3446953283E-16 -0.3755776316E+01  0.1887699885E+16  0.3665392678E+01  0.1256397604E-16 -0.3372448181E+01
  0.8469889352E+00  0.1000000000E+01  0.3530110648E+00  0.4280716964E+01  0.1800798026E-16 -0.3503538756E+01  0.1887699885E+16  0.3106616887E+01 -0.2121156496E-16 -0.2832062731E+01
  0.8000000000E+00  0.1000000000E+01  0.3530110648E+00  0.3448545535E+01 -0.1433175683E-18 -0.3452744652E+01  0.1887699885E+16  0.2372094514E+01  0.9479407290E-18 -0.2669403905E+01
  0.1200000000E+01  0.1000000000E+01  0.4000000000E+00  0.7917912546E+01  0.8566552061E-18 -0.3674419622E+01  0.1887699885E+16  0.6276607759E+01  0.1613649855E-17 -0.4201136648E+01
  0.1153011065E+01  0.1000000000E+01  0.4000000000E+00  0.7694182931E+01  0.1967327520E-16 -0.3953678767E+01  0.1887699885E+16  0.5836318417E+01 -0.8111909371E-17 -0.4360380324E+01
  0.1057046303E+01  0.1000000000E+01  0.4000000000E+00  0.6713495879E+01 -0.1072925777E-16 -0.3848005220E+01  0.1887699885E+16  0.4712842475E+01 -0.2907785925E-16 -0.3994202452E+01
  0.9429536967E+00  0.1000000000E+01  0.4000000000E+00  0.5546082803E+01 -0.4928178053E-16 -0.4114703179E+01  0.1887699885E+16  0.3817845153E+01 -0.1179574091E-16 -0.3781373092E+01
  0.8469889352E+00  0.1000000000E+01  0.4000000000E+00  0.4527635638E+01 -0.1148217100E-16 -0.3883715151E+01  0.1887699885E+16  0.3163043451E+01 -0.2533826055E-16 -0.2983792495E+01
  0.8000000000E+00  0.1000000000E+01  0.4000000000E+00  0.3866510701E+01 -0.1203412292E-16 -0.3954507973E+01  0.1887699885E+16  0.2613715239E+01 -0.1165284198E-16 -0.2783006673E+01
ZONE I=6, J=6, K=1, F=POINT
  0.1600000000E+01  0.1000000000E+01  0.0000000000E+00 -0.2374079429E-01 -0.7053103000E-18 -0.7547836084E-01  0.1887699885E+16 -0.3269523320E+00 -0.1227255654E-17 -0.5720362955E-01
  0.1553011065E+01  0.1000000000E+01  0.0000000000E+00 -0.1499565767E+00  0.5971313322E-17  0.4371488621E-01  0.1887699885E+16 -0.4419093051E+00  0.2045750104E-16  0.4706328202E-01
  0.1457046303E+01  0.1000000000E+01  0.0000000000E+00 -0.1900783793E+00  0.4409307240E-17 -0.7198712033E-02  0.1887699885E+16 -0.4456370693E+00  0.1009227813E-16 -0.2538411924E-02
  0.1342953697E+01  0.1000000000E+01  0.0000000000E+00 -0.2031157725E+00 -0.1106688497E-16  0.2660523874E-01  0.1887699885E+16 -0.4189279471E+00 -0.2313385296E-16  0.3049590567E-01
  0.1246988935E+01  0.1000000000E+01  0.0000000000E+00 -0.2355690969E+00 -0.1539030931E-17 -0.1138481505E-01  0.1887699885E+16 -0.4224458885E+00 -0.1611897467E-17 -0.7497404211E-02
  0.1200000000E+01  0.1000000000E+01  0.0000000000E+00 -0.1805205333E+00  0.9951783356E-19  0.3355922795E-01  0.1887699885E+16 -0.3524635813E+00 -0.1405457125E-18  0.3770504176E-01
  0.1600000000E+01  0.1000000000E+01  0.4698893521E-01  0.3358164890E+01 -0.9854305348E-16 -0.4351185626E+00  0.1887699885E+16  0.2204270768E+01 -0.7226101932E-16 -0.5364789662E+00
  0.1553011065E+01  0.1000000000E+01  0.4698893521E-01  0.3834089584E+01 -0.3733701543E-16 -0.8541793803E+00  0.1887699885E+16  0.2797706601E+01 -0.6847161886E-16 -0.1040116400E+01
  0.1457046303E+01  0.1000000000E+01  0.4698893521E-01  0.2911630609E+01 -0.1593188835E-16 -0.4527504620E+00  0.1887699885E+16  0.1872783806E+01  0.1483003491E-16 -0.8964916359E+00
  0.1342953697E+01  0.1000000000E+01  0.4698893521E-01  0.2924773784E+01  0.2730287625E-16 -0.3746220214E+00  0.1887699885E+16  0.1893748426E+01  0.1796557963E-16 -0.7953094605E+00
  0.1246988935E+01  0.1000000000E+01  0.4698893521E-01  0.2288691498E+01 -0.5485707751E-17 -0.3009723361E+00  0.1887699885E+16  0.1332122881E+01 -0.4527446896E-16 -0.7120701382E+00
  0.1200000000E+01  0.1000000000E+01  0.4698893521E-01  0.2668454474E+01 -0.5270043295E-16 -0.4875615548E+00  0.1887699885E+16  0.1681523052E+01 -0.8702721361E-17 -0.8804438239E+00
  0.1600000000E+01  0.1000000000E+01  0.1429536967E+00  0.6959635009E+01 -0.2581083561E-15 -0.1722632268E+01  0.1887699885E+16  0.5673801198E+01 -0.3276489077E-15 -0.2747201686E+01
  0.1553011065E+01  0.1000000000E+01  0.1429536967E+00  0.8485895670E+01 -0.1586368296E-15 -0.9318880731E+00  0.1887699885E+16  0.7603284522E+01 -0.1235920911E-15 -0.1906966115E+01
  0.1457046303E+01  0.1000000000E+01  0.1429536967E+00  0.6636812178E+01  0.2887615452E-16 -0.9672560521E+00  0.1887699885E+16  0.5638839741E+01 -0.3418297306E-16 -0.1871584801E+01
  0.1342953697E+01  0.1000000000E+01  0.1429536967E+00  0.6772266576E+01  0.9487932512E-16 -0.3417545384E+00  0.1887699885E+16  0.5664556984E+01  0.5398871062E-16 -0.1157345001E+01
  0.1246988935E+01  0.1000000000E+01  0.1429536967E+00  0.5392737863E+01  0.1032730607E-16 -0.9965857783E+00  0.1887699885E+16  0.4418991515E+01  0.8750374010E-16 -0.1754662362E+01
  0.1200000000E+01  0.1000000000E+01  0.1429536967E+00  0.6271299420E+01 -0.7420945945E-16 -0.9342506497E+00  0.1887699885E+16  0.5095813523E+01 -0.4445475461E-16 -0.1637580018E+01
  0.1600000000E+01  0.1000000000E+01  0.2570463033E+00  0.1247346077E+02  0.8065678704E-16 -0.2831209329E+01  0.1887699885E+16  0.1106802276E+02  0.7635233807E-16 -0.4125864664E+01
  0.1553011065E+01  0.1000000000E+01  0.2570463033E+00  0.1130696529E+02  0.1046699337E-15 -0.1859966138E+01  0.1887699885E+16  0.1011863698E+02  0.8535760286E-16 -0.3035450230E+01
  0.1457046303E+01  0.1000000000E+01  0.2570463033E+00  0.1002115664E+02  0.1737909057E-15 -0.2030405620E+01  0.1887699885E+16  0.8834650040E+01  0.1060364185E-15 -0.2943213090E+01
  0.1342953697E+01  0.1000000000E+01  0.2570463033E+00  0.8519338884E+01  0.1209060651E-15 -0.1185459144E+01  0.1887699885E+16  0.7360591912E+01  0.5539459305E-16 -0.2010518456E+01
  0.1246988935E+01  0.1000000000E+01  0.2570463033E+00  0.7389351196E+01  0.3245502057E-16 -0.2203490812E+01  0.1887699885E+16  0.6261464881E+01 -0.3307868098E-16 -0.2924982495E+01
  0.1200000000E+01  0.1000000000E+01  0.2570463033E+00  0.7129484351E+01 -0.2664133963E-16 -0.2100203701E+01  0.1887699885E+16  0.5786242213E+01 -0.2515263382E-16 -0.2743781700E+01
  0.1600000000E+01  0.1000000000E+01  0.3530110648E+00  0.1142334473E+02  0.1719151667E-15 -0.3441313805E+01  0.1887699885E+16  0.9868280456E+01  0.1762354811E-15 -0.4431230712E+01
  0.1553011065E+01  0.1000000000E+01  0.3530110648E+00  0.1154834296E+02  0.1772560246E-15 -0.3413521323E+01  0.1887699885E+16  0.1018280508E+02  0.1676970727E-15 -0.4350406276E+01
  0.1457046303E+01  0.1000000000E+01  0.3530110648E+00  0.1036330223E+02  0.1818920233E-15 -0.3175265172E+01  0.1887699885E+16  0.9087716249E+01  0.1173972808E-15 -0.4091460177E+01
  0.1342953697E+01  0.1000000000E+01  0.3530110648E+00  0.9201391353E+01  0.1205355727E-15 -0.2771363898E+01  0.1887699885E+16  0.7962115239E+01  0.8921225480E-16 -0.3600286749E+01
  0.1246988935E+01  0.1000000000E+01  0.3530110648E+00  0.7982008415E+01  0.1994555661E-16 -0.3316459790E+01  0.1887699885E+16  0.6671580995E+01  0.6603599415E-16 -0.3966795273E+01
  0.1200000000E+01  0.1000000000E+01  0.3530110648E+00  0.8027101056E+01  0.2982579729E-17 -0.3417952294E+01  0.1887699885E+16  0.6502170537E+01  0.3469485201E-17 -0.3959887149E+01
  0.1600000000E+01  0.1000000000E+01  0.4000000000E+00  0.1180910972E+02  0.1692457871E-15 -0.3766618100E+01  0.1887699885E+16  0.1015605441E+02  0.1699551603E-15 -0.5076237790E+01
  0.1553011065E+01  0.1000000000E+01  0.4000000000E+00  0.1104456514E+02  0.1580452308E-15 -0.3094286333E+01  0.1887699885E+16  0.9642546609E+01  0.1868317150E-15 -0.4299115167E+01
  0.1457046303E+01  0.1000000000E+01  0.4000000000E+00  0.1044847647E+02  0.1359034003E-15 -0.3417527029E+01  0.1887699885E+16  0.9154131986E+01  0.1388370268E-15 -0.4515763736E+01
  0.1342953697E+01  0.1000000000E+01  0.4000000000E+00  0.9187218570E+01  0.1230773291E-15 -0.2984781168E+01  0.1887699885E+16  0.7866928151E+01  0.4254530254E-16 -0.3927912553E+01
  0.1246988935E+01  0.1000000000E+01  0.4000000000E+00  0.8342933435E+01  0.2187972676E-16 -0.3792225852E+01  0.1887699885E+16  0.6906797339E+01  0.4032543204E-16 -0.4462523165E+01
  0.1200000000E+01  0.1000000000E+01  0.4000000000E+00  0.7888299327E+01  0.1396562200E-17 -0.3661056163E+01  0.1887699885E+16  0.6249209267E+01  0.1670047288E-17 -0.4191279081E+01
ZONE I=6, J=6, K=1, F=POINT
  0.2000000000E+01  0.1000000000E+01  0.0000000000E+00  0.2410540137E+01  0.4561077553E-19  0.2124433712E+02  0.1887699885E+16  0.2385500843E+01 -0.2090436265E-19  0.2211204113E+02
  0.1953011065E+01  0.1000000000E+01  0.0000000000E+00  0.1245231519E+01 -0.3515971633E-16 -0.1145017425E+00  0.1887699885E+16  0.8561722474E+00 -0.2595822651E-16 -0.1917509046E+00
  0.1857046303E+01  0.1000000000E+01  0.0000000000E+00 -0.3973799063E+00 -0.2446228441E-16  0.1407257975E+00  0.1887699885E+16 -0.8443975505E+00 -0.4975708166E-16  0.1585035491E+00
  0.1742953697E+01  0.1000000000E+01  0.0000000000E+00  0.1103149349E-01  0.4927387079E-19 -0.3984336425E-01  0.1887699885E+16 -0.3543225924E+00 -0.1376399851E-17 -0.4223860755E-01
  0.1646988935E+01  0.1000000000E+01  0.0000000000E+00 -0.2895659175E+00  0.1077330111E-17  0.5658636653E-01  0.1887699885E+16 -0.6665233671E+00  0.1839203779E-17  0.6464840339E-01
  0.1600000000E+01  0.1000000000E+01  0.0000000000E+00 -0.6685115025E-01 -0.7942977953E-18 -0.8740361971E-01  0.1887699885E+16 -0.3591583800E+00 -0.1246407143E-17 -0.6759398699E-01
  0.2000000000E+01  0.1000000000E+01  0.4698893521E-01  0.1292287362E-01  0.8843157709E-18  0.4843431141E+02  0.1887699885E+16 -0.9917107101E-01  0.6328122276E-18  0.4820550682E+02
  0.1953011065E+01  0.1000000000E+01  0.4698893521E-01  0.1173255106E+02  0.1412063384E-15  0.2157114092E+01  0.1887699885E+16  0.1042675611E+02  0.1280983896E-15  0.9087592960E+00
  0.1857046303E+01  0.1000000000E+01  0.4698893521E-01  0.1242515763E+02  0.3433106257E-15 -0.1468538890E+01  0.1887699885E+16  0.1091751780E+02  0.2364195018E-15 -0.2584748228E+01
  0.1742953697E+01  0.1000000000E+01  0.4698893521E-01  0.6339082334E+01 -0.5311879173E-16 -0.7181410348E+00  0.1887699885E+16  0.4941666517E+01 -0.4790898212E-16 -0.1549689658E+01
  0.1646988935E+01  0.1000000000E+01  0.4698893521E-01  0.5082488816E+01 -0.1602941749E-15 -0.1187187125E+01  0.1887699885E+16  0.3503878129E+01 -0.7713553434E-16 -0.1468854969E+01
  0.1600000000E+01  0.1000000000E+01  0.4698893521E-01  0.3183752953E+01 -0.9535456770E-16 -0.4471700023E+00  0.1887699885E+16  0.2049861602E+01 -0.6951323730E-16 -0.5551086606E+00
  0.2000000000E+01  0.1000000000E+01  0.1429536967E+00 -0.2978405947E+00  0.1674839259E-17  0.5039827144E+02  0.1887699885E+16 -0.2544729688E+00  0.2962665393E-17  0.4987044454E+02
  0.1953011065E+01  0.1000000000E+01  0.1429536967E+00  0.3577101974E+01 -0.4411152738E-15  0.1708587628E+02  0.1887699885E+16  0.2213961783E+01 -0.5630003935E-15  0.1558547439E+02
  0.1857046303E+01  0.1000000000E+01  0.1429536967E+00  0.1382723639E+02 -0.3435480026E-15 -0.3044498420E+01  0.1887699885E+16  0.1218055636E+02 -0.2453045000E-15 -0.4501902131E+01
  0.1742953697E+01  0.1000000000E+01  0.1429536967E+00  0.1110251431E+02  0.6449066902E-16 -0.3762069769E+01  0.1887699885E+16  0.9349862305E+01 -0.1079260253E-15 -0.5068795691E+01
  0.1646988935E+01  0.1000000000E+01  0.1429536967E+00  0.1038991296E+02 -0.1728777723E-15 -0.1930462635E+01  0.1887699885E+16  0.8366091342E+01 -0.1781906432E-15 -0.3037655267E+01
  0.1600000000E+01  0.1000000000E+01  0.1429536967E+00  0.6574056409E+01 -0.2727811546E-15 -0.1722777845E+01  0.1887699885E+16  0.5337532222E+01 -0.3442019292E-15 -0.2752114880E+01
  0.2000000000E+01  0.1000000000E+01  0.2570463033E+00  0.1263067845E-01  0.1202331940E-17  0.4971301543E+02  0.1887699885E+16  0.8675239833E-02  0.8648092224E-18  0.4933486348E+02