TITLE = "Generated from ../MESH/Convergence_0000000000.hmesh and Convergence_0000005400.hsol"
VARIABLES = "x","y","z","veloT_x","veloT_y","veloT_z","slr_4","velo_x","velo_y","velo_z"
ZONE I=6, J=6, K=1, F=POINT
  0.4000000000E+00  0.1000000000E+01  0.0000000000E+00 -0.1197059137E-01  0.2792260616E-19  0.7488675269E-02  0.6766713224E+15 -0.1178121755E-01  0.2792062674E-19  0.7858124921E-02
  0.3530110648E+00  0.1000000000E+01  0.0000000000E+00 -0.1297354691E-02  0.7936610888E-20 -0.2662337478E-03  0.6766713224E+15 -0.1283772729E-02  0.8301834295E-20 -0.3128484456E-03
  0.2570463033E+00  0.1000000000E+01  0.0000000000E+00  0.2369416120E-03  0.7838381156E-21  0.2423222198E-02  0.6766713224E+15  0.2639431369E-04  0.8796139002E-21  0.2310918501E-02
  0.1429536967E+00  0.1000000000E+01  0.0000000000E+00 -0.5263589638E-03  0.9755203186E-22 -0.9750409396E-03  0.6766713224E+15 -0.1136801515E-02  0.1267216594E-21 -0.1025530894E-02
  0.4698893521E-01  0.1000000000E+01  0.0000000000E+00  0.2133728397E-02 -0.2316219462E-20  0.1917093034E-02  0.6766713224E+15  0.1523480298E-02 -0.2395560021E-20  0.1983661559E-02
  0.0000000000E+00  0.1000000000E+01  0.0000000000E+00 -0.7460227370E-02  0.1243860236E-22  0.2000509277E-02  0.6766713224E+15 -0.7511516524E-02  0.1323828237E-22  0.2084731760E-02
  0.4000000000E+00  0.1000000000E+01  0.4698893521E-01  0.2678527591E+00  0.3156080903E-17 -0.4393394144E-01  0.6766713224E+15  0.2681474360E+00  0.3154580227E-17 -0.2937047572E-01
  0.3530110648E+00  0.1000000000E+01  0.4698893521E-01  0.1279963035E+00  0.2844659285E-17 -0.7423728004E-02  0.6766713224E+15  0.1293818633E+00  0.2814503453E-17  0.5709777269E-02
  0.2570463033E+00  0.1000000000E+01  0.4698893521E-01  0.9940913875E-01  0.1180998650E-17 -0.1891602594E-01  0.6766713224E+15  0.1003602882E+00  0.1190698209E-17 -0.1151786623E-01
  0.1429536967E+00  0.1000000000E+01  0.4698893521E-01  0.5463349852E-02  0.3487007971E-18 -0.1162452075E-01  0.6766713224E+15  0.4666561845E-02  0.3485145435E-18 -0.8528002365E-02
  0.4698893521E-01  0.1000000000E+01  0.4698893521E-01 -0.1099745733E-03  0.8325970478E-19 -0.9836553072E-02  0.6766713224E+15 -0.1257273174E-02  0.8133140829E-19 -0.8311856515E-02
  0.0000000000E+00  0.1000000000E+01  0.4698893521E-01 -0.1802900115E-01  0.9748412818E-21  0.2046466804E-02  0.6766713224E+15 -0.1808711894E-01  0.9046903849E-21  0.2605529685E-02
  0.4000000000E+00  0.1000000000E+01  0.1429536967E+00  0.6122739858E+00  0.1016846848E-16 -0.1180267609E+00  0.6766713224E+15  0.6112602660E+00  0.1015523892E-16 -0.1146218015E+00
  0.3530110648E+00  0.1000000000E+01  0.1429536967E+00  0.3517730202E+00  0.6363091452E-17 -0.1587553789E+00  0.6766713224E+15  0.3547346181E+00  0.6327423942E-17 -0.1535892810E+00
  0.2570463033E+00  0.1000000000E+01  0.1429536967E+00  0.2432332298E+00  0.2741959339E-17 -0.1053932359E+00  0.6766713224E+15  0.2475907558E+00  0.2747665046E-17 -0.9852514357E-01
  0.1429536967E+00  0.1000000000E+01  0.1429536967E+00  0.3856638851E-01  0.1085222847E-17 -0.1170984681E+00  0.6766713224E+15  0.4067876150E-01  0.1088490190E-17 -0.1120484212E+00
  0.4698893521E-01  0.1000000000E+01  0.1429536967E+00 -0.5293885741E-02  0.2935555538E-18 -0.1083051343E-01  0.6766713224E+15 -0.4555203125E-02  0.2821761313E-18 -0.8510665703E-02
  0.0000000000E+00  0.1000000000E+01  0.1429536967E+00 -0.2138133666E-01 -0.1072954981E-21 -0.1527696618E-02  0.6766713224E+15 -0.2132476377E-01 -0.8448302235E-22 -0.7777718508E-03
  0.4000000000E+00  0.1000000000E+01  0.2570463033E+00  0.7406453301E+00  0.4496587060E-17 -0.3955189274E+00  0.6766713224E+15  0.7334635739E+00  0.4492545264E-17 -0.4093439799E+00
  0.3530110648E+00  0.1000000000E+01  0.2570463033E+00  0.5574903697E+00  0.3586065660E-17 -0.4365873387E+00  0.6766713224E+15  0.5526450644E+00  0.3437225099E-17 -0.4469833817E+00
  0.2570463033E+00  0.1000000000E+01  0.2570463033E+00  0.3407322381E+00  0.2555110435E-17 -0.3060388865E+00  0.6766713224E+15  0.3410370316E+00  0.2556441014E-17 -0.3098523990E+00
  0.1429536967E+00  0.1000000000E+01  0.2570463033E+00  0.9776870016E-01  0.1818914422E-17 -0.2836615864E+00  0.6766713224E+15  0.1009605809E+00  0.1819064672E-17 -0.2840865571E+00
  0.4698893521E-01  0.1000000000E+01  0.2570463033E+00  0.1092815494E-01  0.1149365803E-17 -0.5016680626E-01  0.6766713224E+15  0.1254277984E-01  0.1160599826E-17 -0.4929975210E-01
  0.0000000000E+00  0.1000000000E+01  0.2570463033E+00 -0.1425209298E-01 -0.3732816402E-20 -0.1168725415E-02  0.6766713224E+15 -0.1419872584E-01 -0.4002013823E-20 -0.7404761843E-03
  0.4000000000E+00  0.1000000000E+01  0.3530110648E+00  0.8092273445E+00  0.5033547541E-17 -0.6900240819E+00  0.6766713224E+15  0.7957953499E+00  0.5040920771E-17 -0.7079425396E+00
  0.3530110648E+00  0.1000000000E+01  0.3530110648E+00  0.6078880408E+00  0.4457718834E-17 -0.6921609451E+00  0.6766713224E+15  0.5966419124E+00  0.4454639729E-17 -0.7068132556E+00
  0.2570463033E+00  0.1000000000E+01  0.3530110648E+00  0.3691874855E+00  0.2325549300E-17 -0.5247568977E+00  0.6766713224E+15  0.3651033446E+00  0.2458850921E-17 -0.5339467021E+00
  0.1429536967E+00  0.1000000000E+01  0.3530110648E+00  0.1106401709E+00  0.2248988502E-17 -0.4268903073E+00  0.6766713224E+15  0.1104430705E+00  0.2280458824E-17 -0.4304999934E+00
  0.4698893521E-01  0.1000000000E+01  0.3530110648E+00  0.1777146512E-01  0.6987065751E-18 -0.1134918229E+00  0.6766713224E+15  0.1689353767E-01  0.6940601534E-18 -0.1129623448E+00
  0.0000000000E+00  0.1000000000E+01  0.3530110648E+00 -0.1425106156E-01  0.5642308253E-20 -0.1401161154E-02  0.6766713224E+15 -0.1430154254E-01  0.5500646186E-20 -0.9422907374E-03
  0.4000000000E+00  0.1000000000E+01  0.4000000000E+00  0.8050204667E+00  0.7118636198E-17 -0.8312818703E+00  0.6766713224E+15  0.7879328333E+00  0.7121809867E-17 -0.8585763737E+00
  0.3530110648E+00  0.1000000000E+01  0.4000000000E+00  0.6519137391E+00  0.6086192420E-17 -0.8237862432E+00  0.6766713224E+15  0.6364569802E+00  0.6129889485E-17 -0.8454107214E+00
  0.2570463033E+00  0.1000000000E+01  0.4000000000E+00  0.3805086889E+00  0.2726751625E-17 -0.6393820068E+00  0.6766713224E+15  0.3729145690E+00  0.2704441785E-17 -0.6481819971E+00
  0.1429536967E+00  0.1000000000E+01  0.4000000000E+00  0.1257008325E+00  0.2495357042E-17 -0.5079750527E+00  0.6766713224E+15  0.1233130575E+00  0.2485046958E-17 -0.5081807626E+00
  0.4698893521E-01  0.1000000000E+01  0.4000000000E+00  0.1664433123E-01  0.6885493514E-18 -0.1454335759E+00  0.6766713224E+15  0.1477350839E-01  0.6816724708E-18 -0.1439722866E+00
  0.0000000000E+00  0.1000000000E+01  0.4000000000E+00 -0.6386974522E-02  0.7966079284E-20 -0.3055312943E-02  0.6766713224E+15 -0.6566949950E-02  0.8067248396E-20 -0.2295309858E-02
ZONE I=6, J=6, K=1, F=POINT
  0.8000000000E+00  0.1000000000E+01  0.0000000000E+00  0.1636960570E-01 -0.8675076910E-19 -0.1157517764E-01  0.6766713224E+15  0.1717140319E-01 -0.8918408006E-19 -0.1146612385E-01
  0.7530110648E+00  0.1000000000E+01  0.0000000000E+00  0.9672170129E-03  0.5128294474E-19  0.6092843464E-02  0.6766713224E+15  0.1455348485E-02  0.6404636151E-19  0.6087961597E-02
  0.6570463033E+00  0.1000000000E+01  0.0000000000E+00 -0.1381399809E-02  0.9736066147E-20  0.3383304544E-03  0.6766713224E+15 -0.9538435548E-03  0.1617455498E-19  0.3235815245E-03
  0.5429536967E+00  0.1000000000E+01  0.0000000000E+00  0.1774710068E-03  0.8718576886E-20  0.7169000833E-02  0.6766713224E+15  0.4814470923E-03  0.1846085613E-19  0.7168729682E-02
  0.4469889352E+00  0.1000000000E+01  0.0000000000E+00 -0.2074188928E-02 -0.4371584248E-19  0.7036611955E-03  0.6766713224E+15 -0.2084690917E-02 -0.4278589227E-19  0.6663066057E-03
  0.4000000000E+00  0.1000000000E+01  0.0000000000E+00  0.1474413074E-01  0.3152164033E-19  0.7173631024E-02  0.6766713224E+15  0.1475352838E-01  0.3157480833E-19  0.7560454058E-02
  0.8000000000E+00  0.1000000000E+01  0.4698893521E-01  0.3489499915E+00 -0.2319290041E-16  0.3200987022E-02  0.6766713224E+15  0.3490464777E+00 -0.2318800735E-16  0.1082702499E-01
  0.7530110648E+00  0.1000000000E+01  0.4698893521E-01  0.5410890006E+00 -0.2256350794E-16 -0.5473617158E-01  0.6766713224E+15  0.5405466825E+00 -0.2254103707E-16 -0.4751888425E-01
  0.6570463033E+00  0.1000000000E+01  0.4698893521E-01  0.3153947732E+00 -0.4338161107E-17 -0.2317932328E-01  0.6766713224E+15  0.3145509247E+00 -0.4337434079E-17 -0.1549635372E-01
  0.5429536967E+00  0.1000000000E+01  0.4698893521E-01  0.3388790057E+00  0.4429013502E-17 -0.1153892130E-01  0.6766713224E+15  0.3375218047E+00  0.4412790258E-17 -0.1199810182E-02
  0.4469889352E+00  0.1000000000E+01  0.4698893521E-01  0.2067410324E+00  0.4102353281E-17 -0.1469355451E-02  0.6766713224E+15  0.2051148498E+00  0.4100246043E-17  0.1265860267E-01
  0.4000000000E+00  0.1000000000E+01  0.4698893521E-01  0.3097739293E+00  0.2915943248E-17 -0.4468821452E-01  0.6766713224E+15  0.3093411089E+00  0.2918122970E-17 -0.3011932478E-01
  0.8000000000E+00  0.1000000000E+01  0.1429536967E+00  0.1136138945E+01 -0.5297282849E-16 -0.3776579946E+00  0.6766713224E+15  0.1138678930E+01 -0.5287827898E-16 -0.3752863981E+00
  0.7530110648E+00  0.1000000000E+01  0.1429536967E+00  0.1419843964E+01 -0.3290428196E-16 -0.2276457475E+00  0.6766713224E+15  0.1421546903E+01 -0.3291859091E-16 -0.2275896426E+00
  0.6570463033E+00  0.1000000000E+01  0.1429536967E+00  0.9572425258E+00 -0.2727212862E-17 -0.2138619575E+00  0.6766713224E+15  0.9560942986E+00 -0.2681653413E-17 -0.2169103744E+00
  0.5429536967E+00  0.1000000000E+01  0.1429536967E+00  0.8633901493E+00  0.9948502314E-17 -0.6362698754E-01  0.6766713224E+15  0.8581062511E+00  0.9797021009E-17 -0.6468585069E-01
  0.4469889352E+00  0.1000000000E+01  0.1429536967E+00  0.5449223952E+00  0.1000732467E-16 -0.1416499229E+00  0.6766713224E+15  0.5404145298E+00  0.1002866623E-16 -0.1393774030E+00
  0.4000000000E+00  0.1000000000E+01  0.1429536967E+00  0.6631048705E+00  0.1086891378E-16 -0.1174690677E+00  0.6766713224E+15  0.6626183978E+00  0.1086294359E-16 -0.1140693492E+00
  0.8000000000E+00  0.1000000000E+01  0.2570463033E+00  0.2232072748E+01 -0.1167253807E-16 -0.9558810513E+00  0.6766713224E+15  0.2242109177E+01 -0.1166214757E-16 -0.9632128393E+00
  0.7530110648E+00  0.1000000000E+01  0.2570463033E+00  0.2080777061E+01 -0.7628876337E-17 -0.6959940179E+00  0.6766713224E+15  0.2091407444E+01 -0.7844939946E-17 -0.7075303929E+00
  0.6570463033E+00  0.1000000000E+01  0.2570463033E+00  0.1574069866E+01 -0.2181746079E-17 -0.6201206177E+00  0.6766713224E+15  0.1575990934E+01 -0.2225241684E-17 -0.6385639752E+00
  0.5429536967E+00  0.1000000000E+01  0.2570463033E+00  0.1187841142E+01  0.3570229529E-17 -0.3502142207E+00  0.6766713224E+15  0.1179914872E+01  0.3443177023E-17 -0.3695670500E+00
  0.4469889352E+00  0.1000000000E+01  0.2570463033E+00  0.8247745423E+00  0.4682148547E-17 -0.4456564482E+00  0.6766713224E+15  0.8164417808E+00  0.4475529842E-17 -0.4622023022E+00
  0.4000000000E+00  0.1000000000E+01  0.2570463033E+00  0.7709483097E+00  0.4521820571E-17 -0.3948552106E+00  0.6766713224E+15  0.7642848222E+00  0.4516783866E-17 -0.4087322045E+00
  0.8000000000E+00  0.1000000000E+01  0.3530110648E+00  0.2527671488E+01  0.3361840379E-17 -0.1484723881E+01  0.6766713224E+15  0.2545779899E+01  0.3331195868E-17 -0.1494516474E+01
  0.7530110648E+00  0.1000000000E+01  0.3530110648E+00  0.2395048212E+01  0.6822972717E-17 -0.1255541415E+01  0.6766713224E+15  0.2414722202E+01  0.7903422693E-17 -0.1269333052E+01
  0.6570463033E+00  0.1000000000E+01  0.3530110648E+00  0.1828736526E+01  0.5302657161E-18 -0.1057317975E+01  0.6766713224E+15  0.1834932392E+01  0.6209124108E-18 -0.1077488547E+01
  0.5429536967E+00  0.1000000000E+01  0.3530110648E+00  0.1348804859E+01  0.1127207626E-19 -0.7294431238E+00  0.6766713224E+15  0.1339608610E+01  0.7649329917E-18 -0.7509759025E+00
  0.4469889352E+00  0.1000000000E+01  0.3530110648E+00  0.8921077549E+00  0.4589992400E-17 -0.7456688978E+00  0.6766713224E+15  0.8796571981E+00  0.4738551985E-17 -0.7658139518E+00
  0.4000000000E+00  0.1000000000E+01  0.3530110648E+00  0.8426400640E+00  0.5009182579E-17 -0.6898123502E+00  0.6766713224E+15  0.8286526593E+00  0.5021303268E-17 -0.7077258998E+00
  0.8000000000E+00  0.1000000000E+01  0.4000000000E+00  0.2650097595E+01 -0.2440587243E-17 -0.1805156942E+01  0.6766713224E+15  0.2672022019E+01 -0.2438937174E-17 -0.1817930822E+01
  0.7530110648E+00  0.1000000000E+01  0.4000000000E+00  0.2388300890E+01  0.3023908328E-18 -0.1510826872E+01  0.6766713224E+15  0.2412015461E+01  0.4842607896E-18 -0.1527331389E+01
  0.6570463033E+00  0.1000000000E+01  0.4000000000E+00  0.1865805592E+01  0.1810035657E-17 -0.1292548028E+01  0.6766713224E+15  0.1873420862E+01  0.1760622352E-17 -0.1314963453E+01
  0.5429536967E+00  0.1000000000E+01  0.4000000000E+00  0.1353291271E+01  0.7813393881E-17 -0.9647674464E+00  0.6766713224E+15  0.1344476143E+01  0.7340843435E-17 -0.9886866419E+00
  0.4469889352E+00  0.1000000000E+01  0.4000000000E+00  0.9598926395E+00  0.7726515159E-17 -0.9153804336E+00  0.6766713224E+15  0.9473280256E+00  0.7556791247E-17 -0.9431540671E+00
  0.4000000000E+00  0.1000000000E+01  0.4000000000E+00  0.8171723710E+00  0.7139776042E-17 -0.8305625269E+00  0.6766713224E+15  0.7994763730E+00  0.7142552737E-17 -0.8578482253E+00
ZONE I=6, J=6, K=1, F=POINT
  0.1200000000E+01  0.1000000000E+01  0.0000000000E+00 -0.3451798838E-01  0.5603141291E-19  0.3673357953E-01  0.6766713224E+15 -0.3354344169E-01  0.5735303739E-19  0.3711343435E-01
  0.1153011065E+01  0.1000000000E+01  0.0000000000E+00 -0.7605023322E-02 -0.3418839437E-18 -0.9659208619E-02  0.6766713224E+15 -0.6291135538E-02 -0.2890099777E-18 -0.9500426609E-02
  0.1057046303E+01  0.1000000000E+01  0.0000000000E+00  0.1239807111E-03 -0.3292420488E-19  0.5904713127E-02  0.6766713224E+15  0.1338755014E-02 -0.2117576472E-20  0.5947969615E-02
  0.9429536967E+00  0.1000000000E+01  0.0000000000E+00 -0.3817965276E-02  0.4723917406E-21 -0.8345981433E-02  0.6766713224E+15 -0.2711217512E-02  0.2194741573E-21 -0.8270246405E-02
  0.8469889352E+00  0.1000000000E+01  0.0000000000E+00  0.1836281069E-02 -0.2273689276E-19  0.5375984713E-02  0.6766713224E+15  0.3105788693E-02 -0.2387104330E-19  0.5365074961E-02
  0.8000000000E+00  0.1000000000E+01  0.0000000000E+00 -0.2883624478E-01 -0.9650826886E-19 -0.1105272194E-01  0.6766713224E+15 -0.2788390347E-01 -0.9910613975E-19 -0.1095969339E-01
  0.1200000000E+01  0.1000000000E+01  0.4698893521E-01  0.2248392842E+01 -0.4176721874E-16 -0.2240729218E+00  0.6766713224E+15  0.2247245746E+01 -0.4169576382E-16 -0.2174323484E+00
  0.1153011065E+01  0.1000000000E+01  0.4698893521E-01  0.1553071379E+01 -0.2583917482E-16 -0.7758041272E-01  0.6766713224E+15  0.1552481214E+01 -0.2582919881E-16 -0.7033733253E-01
  0.1057046303E+01  0.1000000000E+01  0.4698893521E-01  0.1406720518E+01 -0.1210462675E-16 -0.1103567586E+00  0.6766713224E+15  0.1406257537E+01 -0.1209764708E-16 -0.1027193373E+00
  0.9429536967E+00  0.1000000000E+01  0.4698893521E-01  0.7885958229E+00 -0.1422677707E-16 -0.9329733107E-01  0.6766713224E+15  0.7887626459E+00 -0.1422232256E-16 -0.8537348966E-01
  0.8469889352E+00  0.1000000000E+01  0.4698893521E-01  0.6803566005E+00 -0.2709351916E-16 -0.8546462189E-01  0.6766713224E+15  0.6811769386E+00 -0.2713633364E-16 -0.7753223140E-01
  0.8000000000E+00  0.1000000000E+01  0.4698893521E-01  0.2881276806E+00 -0.2249592519E-16  0.5265668512E-02  0.6766713224E+15  0.2885905169E+00 -0.2249941834E-16  0.1283463148E-01
  0.1200000000E+01  0.1000000000E+01  0.1429536967E+00  0.5243754123E+01 -0.5789226018E-16 -0.6610089198E+00  0.6766713224E+15  0.5244454550E+01 -0.5778114322E-16 -0.6551901279E+00
  0.1153011065E+01  0.1000000000E+01  0.1429536967E+00  0.3778139791E+01 -0.6724824890E-16 -0.8700382499E+00  0.6766713224E+15  0.3776702540E+01 -0.6741990861E-16 -0.8630857627E+00
  0.1057046303E+01  0.1000000000E+01  0.1429536967E+00  0.3367241059E+01 -0.3760089775E-16 -0.6537951587E+00  0.6766713224E+15  0.3366543400E+01 -0.3760069902E-16 -0.6456014378E+00
  0.9429536967E+00  0.1000000000E+01  0.1429536967E+00  0.2080024781E+01 -0.3317762938E-16 -0.7550377867E+00  0.6766713224E+15  0.2081214416E+01 -0.3316648443E-16 -0.7478432499E+00
  0.8469889352E+00  0.1000000000E+01  0.1429536967E+00  0.1776604194E+01 -0.4893404176E-16 -0.4007691086E+00  0.6766713224E+15  0.1779344275E+01 -0.4901861339E-16 -0.3965800271E+00
  0.8000000000E+00  0.1000000000E+01  0.1429536967E+00  0.1052821929E+01 -0.5517938646E-16 -0.3792902163E+00  0.6766713224E+15  0.1056808750E+01 -0.5510758316E-16 -0.3768822022E+00
  0.1200000000E+01  0.1000000000E+01  0.2570463033E+00  0.5613292597E+01 -0.5559990409E-17 -0.1783371078E+01  0.6766713224E+15  0.5607315635E+01 -0.5498829759E-17 -0.1784243379E+01
  0.1153011065E+01  0.1000000000E+01  0.2570463033E+00  0.5066923033E+01 -0.3726228910E-16 -0.2035650746E+01  0.6766713224E+15  0.5061628555E+01 -0.3662501338E-16 -0.2035622213E+01
  0.1057046303E+01  0.1000000000E+01  0.2570463033E+00  0.4195441915E+01 -0.3016313794E-16 -0.1642605919E+01  0.6766713224E+15  0.4194934680E+01 -0.3016971763E-16 -0.1640059984E+01
  0.9429536967E+00  0.1000000000E+01  0.2570463033E+00  0.3187023889E+01 -0.2802725004E-16 -0.1678232545E+01  0.6766713224E+15  0.3192161325E+01 -0.2828383092E-16 -0.1678624968E+01
  0.8469889352E+00  0.1000000000E+01  0.2570463033E+00  0.2611575770E+01 -0.1328248460E-16 -0.1035645070E+01  0.6766713224E+15  0.2619824953E+01 -0.1308381791E-16 -0.1040377193E+01
  0.8000000000E+00  0.1000000000E+01  0.2570463033E+00  0.2194860286E+01 -0.1182446152E-16 -0.9584709178E+00  0.6766713224E+15  0.2204898669E+01 -0.1180480177E-16 -0.9654079690E+00
  0.1200000000E+01  0.1000000000E+01  0.3530110648E+00  0.5973244996E+01  0.3361337731E-16 -0.2946062694E+01  0.6766713224E+15  0.5965750979E+01  0.3364758371E-16 -0.2952733090E+01
  0.1153011065E+01  0.1000000000E+01  0.3530110648E+00  0.5236833508E+01  0.1441999445E-16 -0.2880587164E+01  0.6766713224E+15  0.5227275190E+01  0.1456074085E-16 -0.2885118656E+01
  0.1057046303E+01  0.1000000000E+01  0.3530110648E+00  0.4466039015E+01 -0.6165788711E-17 -0.2514957444E+01  0.6766713224E+15  0.4465688829E+01 -0.6128604233E-17 -0.2517366744E+01
  0.9429536967E+00  0.1000000000E+01  0.3530110648E+00  0.3473739013E+01 -0.1226662128E-16 -0.2298428321E+01  0.6766713224E+15  0.3482305400E+01 -0.1250068804E-16 -0.2302523556E+01
  0.8469889352E+00  0.1000000000E+01  0.3530110648E+00  0.2975557539E+01 -0.2695266142E-18 -0.1677905430E+01  0.6766713224E+15  0.2987955988E+01  0.1309896923E-18 -0.1684555831E+01
  0.8000000000E+00  0.1000000000E+01  0.3530110648E+00  0.2480621321E+01  0.3418767853E-17 -0.1485007788E+01  0.6766713224E+15  0.2499648919E+01  0.3401912796E-17 -0.1494835429E+01
  0.1200000000E+01  0.1000000000E+01  0.4000000000E+00  0.5717397377E+01  0.3926731795E-16 -0.3274828032E+01  0.6766713224E+15  0.5707411927E+01  0.3928281627E-16 -0.3282737035E+01
  0.1153011065E+01  0.1000000000E+01  0.4000000000E+00  0.5343419663E+01  0.3071654986E-16 -0.3397489132E+01  0.6766713224E+15  0.5332116584E+01  0.3052508947E-16 -0.3405537906E+01
  0.1057046303E+01  0.1000000000E+01  0.4000000000E+00  0.4431648061E+01  0.5143665001E-17 -0.2910329576E+01  0.6766713224E+15  0.4431398271E+01  0.5034457354E-17 -0.2918074774E+01
  0.9429536967E+00  0.1000000000E+01  0.4000000000E+00  0.3559419984E+01 -0.1121344990E-16 -0.2672540648E+01  0.6766713224E+15  0.3568214052E+01 -0.1150823934E-16 -0.2678863123E+01
  0.8469889352E+00  0.1000000000E+01  0.4000000000E+00  0.2949114811E+01 -0.7190659849E-17 -0.1967746578E+01  0.6766713224E+15  0.2964168052E+01 -0.7021192941E-17 -0.1976972607E+01
  0.8000000000E+00  0.1000000000E+01  0.4000000000E+00  0.2646202758E+01 -0.2417199085E-17 -0.1808603155E+01  0.6766713224E+15  0.2669049125E+01 -0.2416237721E-17 -0.1820906622E+01
ZONE I=6, J=6, K=1, F=POINT
  0.1600000000E+01  0.1000000000E+01  0.0000000000E+00  0.1266887069E+00 -0.9308723910E-18 -0.7164163020E-01  0.6766713224E+15  0.1274310538E+00 -0.1046108852E-17 -0.7142013451E-01
  0.1553011065E+01  0.1000000000E+01  0.0000000000E+00  0.6955582254E-02 -0.1151649599E-17  0.4536594808E-01  0.6766713224E+15  0.7865027595E-02 -0.1217027807E-17  0.4523800648E-01
  0.1457046303E+01  0.1000000000E+01  0.0000000000E+00 -0.1050135616E-01 -0.1592789208E-19 -0.3153151389E-02  0.6766713224E+15 -0.9734808848E-02 -0.5381707666E-19 -0.3146425783E-02
  0.1342953697E+01  0.1000000000E+01  0.0000000000E+00  0.2256933891E-02  0.2339275804E-18  0.2996946397E-01  0.6766713224E+15  0.2945983329E-02  0.2732278147E-18  0.2980326434E-01
  0.1246988935E+01  0.1000000000E+01  0.0000000000E+00 -0.1028933696E-01  0.1146706089E-18 -0.8206409109E-02  0.6766713224E+15 -0.9690825816E-02  0.1271450781E-18 -0.8015500635E-02
  0.1200000000E+01  0.1000000000E+01  0.0000000000E+00  0.5516160285E-01  0.5953998505E-19  0.3679260057E-01  0.6766713224E+15  0.5607883854E-01  0.6101489544E-19  0.3713523943E-01
  0.1600000000E+01  0.1000000000E+01  0.4698893521E-01  0.2992791796E+01 -0.8743971538E-16  0.2311431664E+00  0.6766713224E+15  0.2988974676E+01 -0.8736075045E-16  0.2319838354E+00
  0.1553011065E+01  0.1000000000E+01  0.4698893521E-01  0.3501758628E+01 -0.4356115664E-16 -0.2735591306E+00  0.6766713224E+15  0.3500011734E+01 -0.4361026475E-16 -0.2746266959E+00
  0.1457046303E+01  0.1000000000E+01  0.4698893521E-01  0.2551829194E+01 -0.4128374624E-17 -0.9188172955E-01  0.6766713224E+15  0.2549456613E+01 -0.4055113885E-17 -0.9374927058E-01
  0.1342953697E+01  0.1000000000E+01  0.4698893521E-01  0.2562115777E+01  0.2859312262E-16 -0.7564895342E-01  0.6766713224E+15  0.2558239966E+01  0.2855896667E-16 -0.7395186723E-01
  0.1246988935E+01  0.1000000000E+01  0.4698893521E-01  0.1983734318E+01 -0.7218901537E-17 -0.4914212748E-01  0.6766713224E+15  0.1980409366E+01 -0.7352493614E-17 -0.4364310913E-01
  0.1200000000E+01  0.1000000000E+01  0.4698893521E-01  0.2347244669E+01 -0.4599863819E-16 -0.2297757219E+00  0.6766713224E+15  0.2343629798E+01 -0.4587892063E-16 -0.2227293047E+00
  0.1600000000E+01  0.1000000000E+01  0.1429536967E+00  0.6401783078E+01 -0.2659199630E-15 -0.1751706313E+01  0.6766713224E+15  0.6384890542E+01 -0.2659291907E-15 -0.1762783880E+01
  0.1553011065E+01  0.1000000000E+01  0.1429536967E+00  0.8118859733E+01 -0.1412667385E-15 -0.9218275329E+00  0.6766713224E+15  0.8117058144E+01 -0.1413084103E-15 -0.9319335193E+00
  0.1457046303E+01  0.1000000000E+01  0.1429536967E+00  0.6100560668E+01  0.3215315205E-16 -0.9235102023E+00  0.6766713224E+15  0.6095682991E+01  0.3166012417E-16 -0.9290779587E+00
  0.1342953697E+01  0.1000000000E+01  0.1429536967E+00  0.6075003645E+01  0.1005936995E-15 -0.2289294682E+00  0.6766713224E+15  0.6066201486E+01  0.1002918762E-15 -0.2285526916E+00
  0.1246988935E+01  0.1000000000E+01  0.1429536967E+00  0.4699582343E+01  0.2690977985E-16 -0.7887650662E+00  0.6766713224E+15  0.4693427121E+01  0.2750806476E-16 -0.7838193770E+00
  0.1200000000E+01  0.1000000000E+01  0.1429536967E+00  0.5410641215E+01 -0.6205705414E-16 -0.6555257515E+00  0.6766713224E+15  0.5400496228E+01 -0.6183934122E-16 -0.6504310989E+00
  0.1600000000E+01  0.1000000000E+01  0.2570463033E+00  0.1140279549E+02  0.1057555392E-15 -0.3539134938E+01  0.6766713224E+15  0.1140699767E+02  0.1056877238E-15 -0.3564916839E+01
  0.1553011065E+01  0.1000000000E+01  0.2570463033E+00  0.1035198189E+02  0.1285637503E-15 -0.2464799324E+01  0.6766713224E+15  0.1034529855E+02  0.1281755534E-15 -0.2482675377E+01
  0.1457046303E+01  0.1000000000E+01  0.2570463033E+00  0.9010158861E+01  0.1869539085E-15 -0.2370471815E+01  0.6766713224E+15  0.8996781813E+01  0.1860891105E-15 -0.2379457339E+01
  0.1342953697E+01  0.1000000000E+01  0.2570463033E+00  0.7367741331E+01  0.1330716121E-15 -0.1260950266E+01  0.6766713224E+15  0.7356628072E+01  0.1324281020E-15 -0.1263494634E+01
  0.1246988935E+01  0.1000000000E+01  0.2570463033E+00  0.6095101397E+01  0.4288322828E-16 -0.2011448791E+01  0.6766713224E+15  0.6086988529E+01  0.4245597798E-16 -0.2012882853E+01
  0.1200000000E+01  0.1000000000E+01  0.2570463033E+00  0.5653951366E+01 -0.5839820392E-17 -0.1773750387E+01  0.6766713224E+15  0.5647032418E+01 -0.5763880070E-17 -0.1777415732E+01
  0.1600000000E+01  0.1000000000E+01  0.3530110648E+00  0.9938656720E+01  0.2099933990E-15 -0.4024734086E+01  0.6766713224E+15  0.9931386546E+01  0.2099239332E-15 -0.4033805383E+01
  0.1553011065E+01  0.1000000000E+01  0.3530110648E+00  0.1014655015E+02  0.2135546205E-15 -0.3963214976E+01  0.6766713224E+15  0.1013363629E+02  0.2134389897E-15 -0.3972655718E+01
  0.1457046303E+01  0.1000000000E+01  0.3530110648E+00  0.8940293871E+01  0.2015345178E-15 -0.3581589577E+01  0.6766713224E+15  0.8920787729E+01  0.2003665483E-15 -0.3589211588E+01
  0.1342953697E+01  0.1000000000E+01  0.3530110648E+00  0.7618993069E+01  0.1505263594E-15 -0.2813102798E+01  0.6766713224E+15  0.7606662688E+01  0.1501907864E-15 -0.2818027569E+01
  0.1246988935E+01  0.1000000000E+01  0.3530110648E+00  0.6173297770E+01  0.6507615189E-16 -0.3001013996E+01  0.6766713224E+15  0.6167089556E+01  0.6541787666E-16 -0.3006792233E+01
  0.1200000000E+01  0.1000000000E+01  0.3530110648E+00  0.6052164260E+01  0.3372892881E-16 -0.2946451435E+01  0.6766713224E+15  0.6039928666E+01  0.3372854828E-16 -0.2952814665E+01
  0.1600000000E+01  0.1000000000E+01  0.4000000000E+00  0.1013259887E+02  0.2121516995E-15 -0.4746979395E+01  0.6766713224E+15  0.1013006672E+02  0.2120485494E-15 -0.4746643464E+01
  0.1553011065E+01  0.1000000000E+01  0.4000000000E+00  0.9485664965E+01  0.2255071716E-15 -0.4003288674E+01  0.6766713224E+15  0.9475647880E+01  0.2257098058E-15 -0.4002571707E+01
  0.1457046303E+01  0.1000000000E+01  0.4000000000E+00  0.8852885113E+01  0.1936728748E-15 -0.4140490717E+01  0.6766713224E+15  0.8832746306E+01  0.1937584357E-15 -0.4143522835E+01
  0.1342953697E+01  0.1000000000E+01  0.4000000000E+00  0.7380754660E+01  0.1579779708E-15 -0.3240651186E+01  0.6766713224E+15  0.7369914617E+01  0.1572344579E-15 -0.3248753810E+01
  0.1246988935E+01  0.1000000000E+01  0.4000000000E+00  0.6301748937E+01  0.6534793369E-16 -0.3591139202E+01  0.6766713224E+15  0.6295308748E+01  0.6545917112E-16 -0.3598424883E+01
  0.1200000000E+01  0.1000000000E+01  0.4000000000E+00  0.5691870681E+01  0.3953228139E-16 -0.3262656638E+01  0.6766713224E+15  0.5683336198E+01  0.3952379949E-16 -0.3273342655E+01
ZONE I=6, J=6, K=1, F=POINT
  0.2000000000E+01  0.1000000000E+01  0.0000000000E+00  0.2401653327E+01  0.7277229322E-19  0.2123358298E+02  0.6766713224E+15  0.2429513018E+01  0.9363043689E-19  0.2215468482E+02
  0.1953011065E+01  0.1000000000E+01  0.0000000000E+00  0.1288417769E+01 -0.3725063699E-16 -0.1380399069E+00  0.6766713224E+15  0.1293339777E+01 -0.3602443472E-16 -0.1512114364E+00
  0.1857046303E+01  0.1000000000E+01  0.0000000000E+00 -0.3109121338E+00 -0.1904135131E-16  0.1520664367E+00  0.6766713224E+15 -0.3104070490E+00 -0.1946639628E-16  0.1505539380E+00
  0.1742953697E+01  0.1000000000E+01  0.0000000000E+00  0.1301841818E+00  0.2058537676E-18 -0.3726707564E-01  0.6766713224E+15  0.1319525851E+00  0.9237851056E-19 -0.3699460113E-01
  0.1646988935E+01  0.1000000000E+01  0.0000000000E+00 -0.1315263968E+00  0.3250292547E-18  0.6069553665E-01  0.6766713224E+15 -0.1300101579E+00  0.2891289294E-18  0.5980324799E-01
  0.1600000000E+01  0.1000000000E+01  0.0000000000E+00  0.8517762152E-01 -0.1009735662E-17 -0.8372110821E-01  0.6766713224E+15  0.8540453626E-01 -0.1126828773E-17 -0.8211069566E-01
  0.2000000000E+01  0.1000000000E+01  0.4698893521E-01 -0.1308554031E-01  0.7488831846E-18  0.4847930686E+02  0.6766713224E+15 -0.5583869876E-01  0.6847411230E-18  0.4865520003E+02
  0.1953011065E+01  0.1000000000E+01  0.4698893521E-01  0.1094931544E+02  0.1356528848E-15  0.1453872423E+01  0.6766713224E+15  0.1093343560E+02  0.1344088150E-15  0.1468499277E+01
  0.1857046303E+01  0.1000000000E+01  0.4698893521E-01  0.1160750501E+02  0.2867257634E-15 -0.1904679819E+01  0.6766713224E+15  0.1160444792E+02  0.2866658418E-15 -0.1900785201E+01
  0.1742953697E+01  0.1000000000E+01  0.4698893521E-01  0.5716667485E+01 -0.4156253587E-16 -0.6498810118E+00  0.6766713224E+15  0.5716852778E+01 -0.4120569102E-16 -0.6471590956E+00
  0.1646988935E+01  0.1000000000E+01  0.4698893521E-01  0.4444283809E+01 -0.1210554220E-15 -0.6267403181E+00  0.6766713224E+15  0.4439983384E+01 -0.1210316439E-15 -0.6231955502E+00
  0.1600000000E+01  0.1000000000E+01  0.4698893521E-01  0.2828824057E+01 -0.8459789101E-16  0.2169896063E+00  0.6766713224E+15  0.2834020397E+01 -0.8433235491E-16  0.2125222320E+00
  0.2000000000E+01  0.1000000000E+01  0.1429536967E+00 -0.2818662631E+00  0.2731669626E-17  0.5049906744E+02  0.6766713224E+15 -0.2575246959E+00  0.2769200115E-17  0.5043733209E+02
  0.1953011065E+01  0.1000000000E+01  0.1429536967E+00  0.2777952371E+01 -0.5122130461E-15  0.1635522838E+02  0.6766713224E+15  0.2757897454E+01 -0.5126996846E-15  0.1638942834E+02
  0.1857046303E+01  0.1000000000E+01  0.1429536967E+00  0.1267223379E+02 -0.2613303604E-15 -0.3652074825E+01  0.6766713224E+15  0.1266057489E+02 -0.2608556209E-15 -0.3644481515E+01
  0.1742953697E+01  0.1000000000E+01  0.1429536967E+00  0.9949686012E+01 -0.3171287469E-16 -0.4047224587E+01  0.6766713224E+15  0.9950989337E+01 -0.3208301629E-16 -0.4049042636E+01
  0.1646988935E+01  0.1000000000E+01  0.1429536967E+00  0.9350609527E+01 -0.1601373599E-15 -0.2010326934E+01  0.6766713224E+15  0.9353634975E+01 -0.1598368579E-15 -0.2017372998E+01
  0.1600000000E+01  0.1000000000E+01  0.1429536967E+00  0.6028914720E+01 -0.2825831302E-15 -0.1751934273E+01  0.6766713224E+15  0.6052503592E+01 -0.2829436801E-15 -0.1767435503E+01
  0.2000000000E+01  0.1000000000E+01  0.2570463033E+00  0.1893220228E-01  0.1131205885E-17  0.4986911062E+02  0.6766713224E+15  0.1795836897E-01  0.1096624528E-17  0.4987553784E+02