TITLE = "Generated from ../MESH/Convergence_0000000000.hmesh and Convergence_0000006800.hsol"
VARIABLES = "x","y","z","veloT_x","veloT_y","veloT_z","slr_4","velo_x","velo_y","velo_z"
ZONE I=6, J=6, K=1, F=POINT
  0.4000000000E+00  0.1000000000E+01  0.0000000000E+00 -0.8553519129E-02  0.2877876350E-19  0.7815111891E-02  0.6634234974E+15 -0.9279551325E-02  0.2945244341E-19  0.7425319209E-02
  0.3530110648E+00  0.1000000000E+01  0.0000000000E+00  0.2796531577E-02  0.8576547086E-20 -0.3198607817E-03  0.6634234974E+15  0.7273243455E-03  0.9002459415E-20 -0.4276071452E-03
  0.2570463033E+00  0.1000000000E+01  0.0000000000E+00  0.3896063483E-02  0.1288988183E-20  0.2223286451E-02  0.6634234974E+15  0.1433743477E-02  0.1386589898E-20  0.2192258636E-02
  0.1429536967E+00  0.1000000000E+01  0.0000000000E+00  0.3287439913E-02  0.2426593874E-21 -0.9990425132E-03  0.6634234974E+15  0.3078580150E-03  0.2096830668E-21 -0.1033765563E-02
  0.4698893521E-01  0.1000000000E+01  0.0000000000E+00  0.5263739878E-02 -0.1929215200E-20  0.1548879709E-02  0.6634234974E+15  0.2713967938E-02 -0.1929172762E-20  0.1745696482E-02
  0.0000000000E+00  0.1000000000E+01  0.0000000000E+00 -0.7156308522E-02  0.1029351191E-22  0.1630208846E-02  0.6634234974E+15 -0.7323351622E-02  0.8770558000E-23  0.1868993147E-02
  0.4000000000E+00  0.1000000000E+01  0.4698893521E-01  0.2812068514E+00  0.3314322307E-17 -0.3066655042E-01  0.6634234974E+15  0.2845909380E+00  0.3295346586E-17 -0.3976035309E-01
  0.3530110648E+00  0.1000000000E+01  0.4698893521E-01  0.1416774371E+00  0.2898300124E-17  0.3942258350E-02  0.6634234974E+15  0.1413675153E+00  0.2911042990E-17 -0.3217129737E-02
  0.2570463033E+00  0.1000000000E+01  0.4698893521E-01  0.1087603684E+00  0.1303315301E-17 -0.1229610997E-01  0.6634234974E+15  0.1077983435E+00  0.1300286160E-17 -0.1520007526E-01
  0.1429536967E+00  0.1000000000E+01  0.4698893521E-01  0.1451779021E-01  0.4408598931E-18 -0.1046714803E-01  0.6634234974E+15  0.1337216607E-01  0.4363339831E-18 -0.1252798052E-01
  0.4698893521E-01  0.1000000000E+01  0.4698893521E-01  0.8026523917E-02  0.1128116949E-18 -0.1501589189E-01  0.6634234974E+15  0.6246073369E-02  0.1121195343E-18 -0.1520365957E-01
  0.0000000000E+00  0.1000000000E+01  0.4698893521E-01 -0.1771402671E-01  0.8469560521E-21 -0.9466002860E-03  0.6634234974E+15 -0.1787120463E-01  0.8435500402E-21  0.1457548780E-02
  0.4000000000E+00  0.1000000000E+01  0.1429536967E+00  0.6458504347E+00  0.1084375640E-16 -0.1294564334E+00  0.6634234974E+15  0.6474245915E+00  0.1085904992E-16 -0.1347281702E+00
  0.3530110648E+00  0.1000000000E+01  0.1429536967E+00  0.3794908370E+00  0.6800809009E-17 -0.1663629541E+00  0.6634234974E+15  0.3745531852E+00  0.6833128209E-17 -0.1703652621E+00
  0.2570463033E+00  0.1000000000E+01  0.1429536967E+00  0.2609193273E+00  0.3081451214E-17 -0.1049270215E+00  0.6634234974E+15  0.2580765958E+00  0.3079293506E-17 -0.1070196916E+00
  0.1429536967E+00  0.1000000000E+01  0.1429536967E+00  0.5634449037E-01  0.1267633401E-17 -0.1158390783E+00  0.6634234974E+15  0.5414598412E-01  0.1267420145E-17 -0.1165985149E+00
  0.4698893521E-01  0.1000000000E+01  0.1429536967E+00  0.9216766012E-02  0.3789779772E-18 -0.1604027115E-01  0.6634234974E+15  0.4647282282E-02  0.3739893866E-18 -0.1487867299E-01
  0.0000000000E+00  0.1000000000E+01  0.1429536967E+00 -0.2152811635E-01 -0.3984522703E-21 -0.5096473496E-02  0.6634234974E+15 -0.2151007257E-01 -0.4206488462E-21 -0.1993480462E-02
  0.4000000000E+00  0.1000000000E+01  0.2570463033E+00  0.8007547962E+00  0.5254466936E-17 -0.4450206627E+00  0.6634234974E+15  0.8044263852E+00  0.5258462648E-17 -0.4438321275E+00
  0.3530110648E+00  0.1000000000E+01  0.2570463033E+00  0.6020342635E+00  0.4097926040E-17 -0.4792910789E+00  0.6634234974E+15  0.5968953001E+00  0.4088276573E-17 -0.4799519378E+00
  0.2570463033E+00  0.1000000000E+01  0.2570463033E+00  0.3673651651E+00  0.2986376069E-17 -0.3323826532E+00  0.6634234974E+15  0.3630044872E+00  0.2986382781E-17 -0.3316097491E+00
  0.1429536967E+00  0.1000000000E+01  0.2570463033E+00  0.1249621241E+00  0.2045514207E-17 -0.2956516468E+00  0.6634234974E+15  0.1212984213E+00  0.2045088990E-17 -0.2933389144E+00
  0.4698893521E-01  0.1000000000E+01  0.2570463033E+00  0.3129572485E-01  0.1129837832E-17 -0.5823203408E-01  0.6634234974E+15  0.2554994875E-01  0.1171954350E-17 -0.5503873026E-01
  0.0000000000E+00  0.1000000000E+01  0.2570463033E+00 -0.1414088688E-01 -0.3532719209E-20 -0.4506711687E-02  0.6634234974E+15 -0.1421115075E-01 -0.3563724053E-20 -0.1120976110E-02
  0.4000000000E+00  0.1000000000E+01  0.3530110648E+00  0.8966640852E+00  0.5572101816E-17 -0.7820309718E+00  0.6634234974E+15  0.9081508805E+00  0.5567957073E-17 -0.7837192916E+00
  0.3530110648E+00  0.1000000000E+01  0.3530110648E+00  0.6734380148E+00  0.4901118363E-17 -0.7752276355E+00  0.6634234974E+15  0.6677063097E+00  0.4902004505E-17 -0.7770713964E+00
  0.2570463033E+00  0.1000000000E+01  0.3530110648E+00  0.4047950110E+00  0.2869730451E-17 -0.5835049591E+00  0.6634234974E+15  0.3979959761E+00  0.2854791675E-17 -0.5825294277E+00
  0.1429536967E+00  0.1000000000E+01  0.3530110648E+00  0.1398056283E+00  0.2486931551E-17 -0.4564777100E+00  0.6634234974E+15  0.1354554058E+00  0.2468876885E-17 -0.4544886691E+00
  0.4698893521E-01  0.1000000000E+01  0.3530110648E+00  0.3879100979E-01  0.8308549027E-18 -0.1273541792E+00  0.6634234974E+15  0.3093988238E-01  0.7877261971E-18 -0.1226059376E+00
  0.0000000000E+00  0.1000000000E+01  0.3530110648E+00 -0.1437539852E-01  0.4840544991E-20 -0.5224854200E-02  0.6634234974E+15 -0.1439197864E-01  0.4860839952E-20 -0.6945315093E-03
  0.4000000000E+00  0.1000000000E+01  0.4000000000E+00  0.9079526612E+00  0.7388568434E-17 -0.9685223872E+00  0.6634234974E+15  0.9178703970E+00  0.7397273074E-17 -0.9693551463E+00
  0.3530110648E+00  0.1000000000E+01  0.4000000000E+00  0.7251945508E+00  0.6397662786E-17 -0.9449814774E+00  0.6634234974E+15  0.7181172117E+00  0.6389949796E-17 -0.9419322709E+00
  0.2570463033E+00  0.1000000000E+01  0.4000000000E+00  0.4165808951E+00  0.2680482382E-17 -0.7176403355E+00  0.6634234974E+15  0.4099121820E+00  0.2670880828E-17 -0.7166788672E+00
  0.1429536967E+00  0.1000000000E+01  0.4000000000E+00  0.1536346193E+00  0.2365810555E-17 -0.5429600278E+00  0.6634234974E+15  0.1481543235E+00  0.2395772604E-17 -0.5416695190E+00
  0.4698893521E-01  0.1000000000E+01  0.4000000000E+00  0.3713925405E-01  0.7243947041E-18 -0.1597603994E+00  0.6634234974E+15  0.2739987077E-01  0.6954374002E-18 -0.1542532364E+00
  0.0000000000E+00  0.1000000000E+01  0.4000000000E+00 -0.6495577215E-02  0.7649200953E-20 -0.6231777502E-02  0.6634234974E+15 -0.6630724220E-02  0.7888995377E-20 -0.1692824549E-02
ZONE I=6, J=6, K=1, F=POINT
  0.8000000000E+00  0.1000000000E+01  0.0000000000E+00  0.2097216926E-01 -0.8601699404E-19 -0.1163150654E-01  0.6634234974E+15  0.2314794538E-01 -0.8591455185E-19 -0.1150395879E-01
  0.7530110648E+00  0.1000000000E+01  0.0000000000E+00  0.5481326880E-02  0.1530944743E-18  0.6102433516E-02  0.6634234974E+15  0.7091042436E-02  0.1945692659E-18  0.6110314612E-02
  0.6570463033E+00  0.1000000000E+01  0.0000000000E+00  0.3150117420E-02  0.7012585012E-19  0.3678918526E-03  0.6634234974E+15  0.3911607313E-02  0.8057365457E-19  0.2733430580E-03
  0.5429536967E+00  0.1000000000E+01  0.0000000000E+00  0.4239029567E-02  0.1161347490E-18  0.6979542642E-02  0.6634234974E+15  0.4490319104E-02  0.1223729701E-18  0.6907507134E-02
  0.4469889352E+00  0.1000000000E+01  0.0000000000E+00  0.1649478812E-02  0.7281639296E-19  0.5864334859E-03  0.6634234974E+15  0.1093041665E-02  0.5536696387E-19  0.5000204500E-03
  0.4000000000E+00  0.1000000000E+01  0.0000000000E+00  0.1860866207E-01  0.3227426165E-19  0.7494824237E-02  0.6634234974E+15  0.1732638995E-01  0.3308404852E-19  0.7105485951E-02
  0.8000000000E+00  0.1000000000E+01  0.4698893521E-01  0.3952805185E+00 -0.2267257457E-16  0.1480897994E-01  0.6634234974E+15  0.4070273545E+00 -0.2280958794E-16  0.3100026907E-02
  0.7530110648E+00  0.1000000000E+01  0.4698893521E-01  0.5817425350E+00 -0.2220207599E-16 -0.4268091552E-01  0.6634234974E+15  0.5924016783E+00 -0.2279260698E-16 -0.5358885925E-01
  0.6570463033E+00  0.1000000000E+01  0.4698893521E-01  0.3470309165E+00 -0.3836650004E-17 -0.6728166476E-02  0.6634234974E+15  0.3547446456E+00 -0.3756110833E-17 -0.1423690488E-01
  0.5429536967E+00  0.1000000000E+01  0.4698893521E-01  0.3613267957E+00  0.4827575265E-17  0.4683839382E-02  0.6634234974E+15  0.3686162995E+00  0.4949351901E-17  0.6211410970E-03
  0.4469889352E+00  0.1000000000E+01  0.4698893521E-01  0.2211641880E+00  0.4281373747E-17  0.1320034840E-01  0.6634234974E+15  0.2277685424E+00  0.4247823901E-17  0.5820796648E-02
  0.4000000000E+00  0.1000000000E+01  0.4698893521E-01  0.3233228194E+00  0.3072931968E-17 -0.3142188142E-01  0.6634234974E+15  0.3265777519E+00  0.3053833123E-17 -0.4051187631E-01
  0.8000000000E+00  0.1000000000E+01  0.1429536967E+00  0.1272306802E+01 -0.5105890434E-16 -0.3831680461E+00  0.6634234974E+15  0.1281659508E+01 -0.5078909444E-16 -0.4004758602E+00
  0.7530110648E+00  0.1000000000E+01  0.1429536967E+00  0.1537140529E+01 -0.3142462108E-16 -0.2353459008E+00  0.6634234974E+15  0.1544613062E+01 -0.3137595881E-16 -0.2509712651E+00
  0.6570463033E+00  0.1000000000E+01  0.1429536967E+00  0.1047900084E+01 -0.1716825681E-17 -0.2253838763E+00  0.6634234974E+15  0.1051594346E+01 -0.1870360486E-17 -0.2366833718E+00
  0.5429536967E+00  0.1000000000E+01  0.1429536967E+00  0.9269436713E+00  0.1102896712E-16 -0.7637417609E-01  0.6634234974E+15  0.9334623845E+00  0.1121002463E-16 -0.8461676376E-01
  0.4469889352E+00  0.1000000000E+01  0.1429536967E+00  0.5860889909E+00  0.1055609147E-16 -0.1543064093E+00  0.6634234974E+15  0.5942114134E+00  0.1053049421E-16 -0.1604330047E+00
  0.4000000000E+00  0.1000000000E+01  0.1429536967E+00  0.6975158752E+00  0.1155585896E-16 -0.1288881389E+00  0.6634234974E+15  0.6995102291E+00  0.1158158054E-16 -0.1341696587E+00
  0.8000000000E+00  0.1000000000E+01  0.2570463033E+00  0.2472798472E+01 -0.9323796131E-17 -0.1022247660E+01  0.6634234974E+15  0.2479889844E+01 -0.9302546663E-17 -0.1034871416E+01
  0.7530110648E+00  0.1000000000E+01  0.2570463033E+00  0.2297781475E+01 -0.5509844675E-17 -0.7649575406E+00  0.6634234974E+15  0.2298992017E+01 -0.5670552569E-17 -0.7756816390E+00
  0.6570463033E+00  0.1000000000E+01  0.2570463033E+00  0.1741985988E+01 -0.9316494149E-18 -0.6924889183E+00  0.6634234974E+15  0.1737902024E+01 -0.8139525626E-18 -0.6936915881E+00
  0.5429536967E+00  0.1000000000E+01  0.2570463033E+00  0.1303838998E+01  0.4905211268E-17 -0.4157775067E+00  0.6634234974E+15  0.1307482349E+01  0.4960803475E-17 -0.4069196116E+00
  0.4469889352E+00  0.1000000000E+01  0.2570463033E+00  0.9021689359E+00  0.5418703383E-17 -0.5022051033E+00  0.6634234974E+15  0.9114454587E+00  0.5474718439E-17 -0.4972547204E+00
  0.4000000000E+00  0.1000000000E+01  0.2570463033E+00  0.8317374449E+00  0.5282483523E-17 -0.4443509211E+00  0.6634234974E+15  0.8357897635E+00  0.5285561764E-17 -0.4432065560E+00
  0.8000000000E+00  0.1000000000E+01  0.3530110648E+00  0.2848596965E+01  0.4782027566E-17 -0.1627929467E+01  0.6634234974E+15  0.2854829409E+01  0.4770548301E-17 -0.1636119935E+01
  0.7530110648E+00  0.1000000000E+01  0.3530110648E+00  0.2686059471E+01  0.8852977628E-17 -0.1396186357E+01  0.6634234974E+15  0.2683866255E+01  0.8714267244E-17 -0.1405188194E+01
  0.6570463033E+00  0.1000000000E+01  0.3530110648E+00  0.2052127115E+01  0.1236847001E-17 -0.1184240529E+01  0.6634234974E+15  0.2033699108E+01  0.1914819797E-17 -0.1187159946E+01
  0.5429536967E+00  0.1000000000E+01  0.3530110648E+00  0.1506888535E+01 -0.6411500396E-19 -0.8334287928E+00  0.6634234974E+15  0.1508208237E+01 -0.2169918493E-18 -0.8231537166E+00
  0.4469889352E+00  0.1000000000E+01  0.3530110648E+00  0.1004824759E+01  0.5373006698E-17 -0.8419067786E+00  0.6634234974E+15  0.1028297124E+01  0.5405000486E-17 -0.8385525276E+00
  0.4000000000E+00  0.1000000000E+01  0.3530110648E+00  0.9291033183E+00  0.5549015571E-17 -0.7818044307E+00  0.6634234974E+15  0.9402568599E+00  0.5539255533E-17 -0.7834785149E+00
  0.8000000000E+00  0.1000000000E+01  0.4000000000E+00  0.3002669552E+01 -0.2154728146E-17 -0.1994922004E+01  0.6634234974E+15  0.3010326948E+01 -0.2155375884E-17 -0.2000930954E+01
  0.7530110648E+00  0.1000000000E+01  0.4000000000E+00  0.2707439045E+01  0.8832629489E-18 -0.1697345023E+01  0.6634234974E+15  0.2708008739E+01  0.9013350411E-18 -0.1706995821E+01
  0.6570463033E+00  0.1000000000E+01  0.4000000000E+00  0.2107107894E+01  0.2240269083E-17 -0.1457987600E+01  0.6634234974E+15  0.2085936402E+01  0.2047144919E-17 -0.1476045414E+01
  0.5429536967E+00  0.1000000000E+01  0.4000000000E+00  0.1532130749E+01  0.8758943847E-17 -0.1097556492E+01  0.6634234974E+15  0.1531053641E+01  0.8548465392E-17 -0.1113514584E+01
  0.4469889352E+00  0.1000000000E+01  0.4000000000E+00  0.1098174696E+01  0.8751928953E-17 -0.1053483191E+01  0.6634234974E+15  0.1123563726E+01  0.9383109480E-17 -0.1060493564E+01
  0.4000000000E+00  0.1000000000E+01  0.4000000000E+00  0.9199829831E+00  0.7411163783E-17 -0.9677245377E+00  0.6634234974E+15  0.9292227850E+00  0.7413951940E-17 -0.9685792181E+00
ZONE I=6, J=6, K=1, F=POINT
  0.1200000000E+01  0.1000000000E+01  0.0000000000E+00 -0.3024749017E-01  0.5647831815E-19  0.3615539183E-01  0.6634234974E+15 -0.2538604018E-01  0.6013272914E-19  0.3623488388E-01
  0.1153011065E+01  0.1000000000E+01  0.0000000000E+00 -0.3063718161E-02 -0.1476607316E-18 -0.9853467255E-02  0.6634234974E+15  0.1716749484E-02  0.8954684202E-19 -0.9758567908E-02
  0.1057046303E+01  0.1000000000E+01  0.0000000000E+00  0.4572416176E-02  0.8325170184E-19  0.5919634894E-02  0.6634234974E+15  0.8758324317E-02  0.1899653482E-18  0.5888309310E-02
  0.9429536967E+00  0.1000000000E+01  0.0000000000E+00  0.5937541047E-03  0.2267393144E-21 -0.8322155372E-02  0.6634234974E+15  0.3965811946E-02  0.6999169941E-20 -0.8315353841E-02
  0.8469889352E+00  0.1000000000E+01  0.0000000000E+00  0.6524297978E-02 -0.2419077072E-19  0.5354536853E-02  0.6634234974E+15  0.9035231099E-02 -0.2299121706E-19  0.5373545873E-02
  0.8000000000E+00  0.1000000000E+01  0.0000000000E+00 -0.2400054714E-01 -0.9570037360E-19 -0.1108560300E-01  0.6634234974E+15 -0.2222775961E-01 -0.9535763854E-19 -0.1096371611E-01
  0.1200000000E+01  0.1000000000E+01  0.4698893521E-01  0.2322028674E+01 -0.4172164825E-16 -0.2036856100E+00  0.6634234974E+15  0.2341978503E+01 -0.4258407126E-16 -0.1995418933E+00
  0.1153011065E+01  0.1000000000E+01  0.4698893521E-01  0.1625622953E+01 -0.2555486273E-16 -0.5874461376E-01  0.6634234974E+15  0.1644232964E+01 -0.2613526940E-16 -0.5669082655E-01
  0.1057046303E+01  0.1000000000E+01  0.4698893521E-01  0.1475112380E+01 -0.1143947250E-16 -0.9239343051E-01  0.6634234974E+15  0.1493063762E+01 -0.1122752456E-16 -0.9418364383E-01
  0.9429536967E+00  0.1000000000E+01  0.4698893521E-01  0.8478175126E+00 -0.1365483330E-16 -0.7697111528E-01  0.6634234974E+15  0.8642408565E+00 -0.1410609466E-16 -0.8548730293E-01
  0.8469889352E+00  0.1000000000E+01  0.4698893521E-01  0.7318829070E+00 -0.2670557013E-16 -0.7297791789E-01  0.6634234974E+15  0.7452570421E+00 -0.2728763963E-16 -0.8429202888E-01
  0.8000000000E+00  0.1000000000E+01  0.4698893521E-01  0.3341526300E+00 -0.2197187744E-16  0.1686517135E-01  0.6634234974E+15  0.3463179825E+00 -0.2212157111E-16  0.5102364640E-02
  0.1200000000E+01  0.1000000000E+01  0.1429536967E+00  0.5458750740E+01 -0.5795989599E-16 -0.6543085855E+00  0.6634234974E+15  0.5491610262E+01 -0.5868538911E-16 -0.6429362083E+00
  0.1153011065E+01  0.1000000000E+01  0.1429536967E+00  0.3991815095E+01 -0.6674199042E-16 -0.8651827995E+00  0.6634234974E+15  0.4018395535E+01 -0.6534927642E-16 -0.8591236385E+00
  0.1057046303E+01  0.1000000000E+01  0.1429536967E+00  0.3565968590E+01 -0.3591430464E-16 -0.6513512003E+00  0.6634234974E+15  0.3591604427E+01 -0.3598185296E-16 -0.6557872295E+00
  0.9429536967E+00  0.1000000000E+01  0.1429536967E+00  0.2255292102E+01 -0.3140329036E-16 -0.7553568623E+00  0.6634234974E+15  0.2278249528E+01 -0.3141889405E-16 -0.7688889936E+00
  0.8469889352E+00  0.1000000000E+01  0.1429536967E+00  0.1929326959E+01 -0.4747215386E-16 -0.4033710722E+00  0.6634234974E+15  0.1944262366E+01 -0.4772514777E-16 -0.4211496369E+00
  0.8000000000E+00  0.1000000000E+01  0.1429536967E+00  0.1187379323E+01 -0.5330745319E-16 -0.3848324653E+00  0.6634234974E+15  0.1199641398E+01 -0.5301226529E-16 -0.4020942855E+00
  0.1200000000E+01  0.1000000000E+01  0.2570463033E+00  0.5992687401E+01 -0.7221474713E-17 -0.1812020761E+01  0.6634234974E+15  0.6034074215E+01 -0.7171666977E-17 -0.1795040299E+01
  0.1153011065E+01  0.1000000000E+01  0.2570463033E+00  0.5438355668E+01 -0.3598904231E-16 -0.2072711798E+01  0.6634234974E+15  0.5481789878E+01 -0.4039872943E-16 -0.2063773434E+01
  0.1057046303E+01  0.1000000000E+01  0.2570463033E+00  0.4544333992E+01 -0.2874048258E-16 -0.1694319727E+01  0.6634234974E+15  0.4583853762E+01 -0.2868471815E-16 -0.1701415069E+01
  0.9429536967E+00  0.1000000000E+01  0.2570463033E+00  0.3496733348E+01 -0.2616873266E-16 -0.1743199682E+01  0.6634234974E+15  0.3524249352E+01 -0.2761500505E-16 -0.1759362795E+01
  0.8469889352E+00  0.1000000000E+01  0.2570463033E+00  0.2877799378E+01 -0.1046840704E-16 -0.1100448161E+01  0.6634234974E+15  0.2891877798E+01 -0.1021411452E-16 -0.1114894954E+01
  0.8000000000E+00  0.1000000000E+01  0.2570463033E+00  0.2434790596E+01 -0.9472085812E-17 -0.1024914889E+01  0.6634234974E+15  0.2442063607E+01 -0.9457782151E-17 -0.1037104833E+01
  0.1200000000E+01  0.1000000000E+01  0.3530110648E+00  0.6483992831E+01  0.2890548962E-16 -0.2985683789E+01  0.6634234974E+15  0.6539462492E+01  0.2890920276E-16 -0.2967758362E+01
  0.1153011065E+01  0.1000000000E+01  0.3530110648E+00  0.5734467087E+01  0.1162457660E-16 -0.2942976635E+01  0.6634234974E+15  0.5793855335E+01  0.1086334607E-16 -0.2930786685E+01
  0.1057046303E+01  0.1000000000E+01  0.3530110648E+00  0.4939164861E+01 -0.7097080274E-17 -0.2616966130E+01  0.6634234974E+15  0.4993074975E+01 -0.7133482491E-17 -0.2619273343E+01
  0.9429536967E+00  0.1000000000E+01  0.3530110648E+00  0.3892922173E+01 -0.1195134423E-16 -0.2432666275E+01  0.6634234974E+15  0.3921522343E+01 -0.1278403713E-16 -0.2444884254E+01
  0.8469889352E+00  0.1000000000E+01  0.3530110648E+00  0.3327897774E+01  0.1287601972E-17 -0.1819428412E+01  0.6634234974E+15  0.3336667116E+01  0.1602036627E-17 -0.1828744263E+01
  0.8000000000E+00  0.1000000000E+01  0.3530110648E+00  0.2801094603E+01  0.4842979445E-17 -0.1628244577E+01  0.6634234974E+15  0.2808691045E+01  0.4828073153E-17 -0.1636461348E+01
  0.1200000000E+01  0.1000000000E+01  0.4000000000E+00  0.6289724639E+01  0.3217234960E-16 -0.3313036211E+01  0.6634234974E+15  0.6347588396E+01  0.3214641095E-16 -0.3294720123E+01
  0.1153011065E+01  0.1000000000E+01  0.4000000000E+00  0.5901111906E+01  0.2444297909E-16 -0.3469046146E+01  0.6634234974E+15  0.5965470855E+01  0.2541049661E-16 -0.3454912816E+01
  0.1057046303E+01  0.1000000000E+01  0.4000000000E+00  0.4962635085E+01  0.1727002252E-17 -0.3040598562E+01  0.6634234974E+15  0.5022428553E+01  0.2232540041E-17 -0.3034274234E+01
  0.9429536967E+00  0.1000000000E+01  0.4000000000E+00  0.4028769675E+01 -0.1279754435E-16 -0.2843172145E+01  0.6634234974E+15  0.4058530929E+01 -0.1336346944E-16 -0.2844184207E+01
  0.8469889352E+00  0.1000000000E+01  0.4000000000E+00  0.3341317508E+01 -0.7093276793E-17 -0.2153816717E+01  0.6634234974E+15  0.3349390492E+01 -0.7012888599E-17 -0.2158992529E+01
  0.8000000000E+00  0.1000000000E+01  0.4000000000E+00  0.2999026344E+01 -0.2133480376E-17 -0.1998408942E+01  0.6634234974E+15  0.3006468014E+01 -0.2136553559E-17 -0.2003903544E+01
ZONE I=6, J=6, K=1, F=POINT
  0.1600000000E+01  0.1000000000E+01  0.0000000000E+00  0.1295449036E+00 -0.9477997179E-18 -0.7159240800E-01  0.6634234974E+15  0.1363892980E+00 -0.1052918255E-17 -0.7136683610E-01
  0.1553011065E+01  0.1000000000E+01  0.0000000000E+00  0.9314628311E-02 -0.1255930559E-17  0.4531091022E-01  0.6634234974E+15  0.1615058242E-01 -0.1615416495E-17  0.4512523003E-01
  0.1457046303E+01  0.1000000000E+01  0.0000000000E+00 -0.7681821049E-02 -0.9109093160E-19 -0.3043846413E-02  0.6634234974E+15 -0.1731860178E-02 -0.2425033697E-18 -0.3079150613E-02
  0.1342953697E+01  0.1000000000E+01  0.0000000000E+00  0.5666569097E-02  0.4240963676E-18  0.2980035460E-01  0.6634234974E+15  0.1096485102E-01  0.7183387245E-18  0.2960914044E-01
  0.1246988935E+01  0.1000000000E+01  0.0000000000E+00 -0.6777734713E-02  0.1495397973E-18 -0.8349830141E-02  0.6634234974E+15 -0.2026310849E-02  0.1564544068E-18 -0.8324026808E-02
  0.1200000000E+01  0.1000000000E+01  0.0000000000E+00  0.5922466658E-01  0.6053794808E-19  0.3619096361E-01  0.6634234974E+15  0.6373924788E-01  0.6585891754E-19  0.3627303726E-01
  0.1600000000E+01  0.1000000000E+01  0.4698893521E-01  0.2976860391E+01 -0.8721854064E-16  0.2546395722E+00  0.6634234974E+15  0.2995947558E+01 -0.8766628968E-16  0.2728144814E+00
  0.1553011065E+01  0.1000000000E+01  0.4698893521E-01  0.3507720246E+01 -0.4407280647E-16 -0.2499521937E+00  0.6634234974E+15  0.3525836308E+01 -0.4354484663E-16 -0.2324979213E+00
  0.1457046303E+01  0.1000000000E+01  0.4698893521E-01  0.2588765136E+01 -0.4231345660E-17 -0.7347063583E-01  0.6634234974E+15  0.2606789914E+01 -0.4746338999E-17 -0.5479715280E-01
  0.1342953697E+01  0.1000000000E+01  0.4698893521E-01  0.2625297570E+01  0.2819913790E-16 -0.5741300237E-01  0.6634234974E+15  0.2644003845E+01  0.2837094965E-16 -0.4321518875E-01
  0.1246988935E+01  0.1000000000E+01  0.4698893521E-01  0.2054538045E+01 -0.7627565647E-17 -0.3045037069E-01  0.6634234974E+15  0.2072708113E+01 -0.6861297324E-17 -0.2288848573E-01
  0.1200000000E+01  0.1000000000E+01  0.4698893521E-01  0.2421170594E+01 -0.4595880542E-16 -0.2093742096E+00  0.6634234974E+15  0.2438470097E+01 -0.4677534632E-16 -0.2048406298E+00
  0.1600000000E+01  0.1000000000E+01  0.1429536967E+00  0.6435488763E+01 -0.2692331339E-15 -0.1697035768E+01  0.6634234974E+15  0.6445696938E+01 -0.2677306117E-15 -0.1654099613E+01
  0.1553011065E+01  0.1000000000E+01  0.1429536967E+00  0.8196636015E+01 -0.1427204911E-15 -0.8623510397E+00  0.6634234974E+15  0.8217059340E+01 -0.1438254702E-15 -0.8224848551E+00
  0.1457046303E+01  0.1000000000E+01  0.1429536967E+00  0.6247501219E+01  0.2911733064E-16 -0.8701260509E+00  0.6634234974E+15  0.6270565327E+01  0.3039622893E-16 -0.8379794406E+00
  0.1342953697E+01  0.1000000000E+01  0.1429536967E+00  0.6271618751E+01  0.9849898719E-16 -0.2003505837E+00  0.6634234974E+15  0.6298055928E+01  0.9949616325E-16 -0.1776083564E+00
  0.1246988935E+01  0.1000000000E+01  0.1429536967E+00  0.4913295046E+01  0.2654135319E-16 -0.7793270897E+00  0.6634234974E+15  0.4940233280E+01  0.2458807359E-16 -0.7634773971E+00
  0.1200000000E+01  0.1000000000E+01  0.1429536967E+00  0.5625533587E+01 -0.6211702268E-16 -0.6486941314E+00  0.6634234974E+15  0.5647114391E+01 -0.6270556833E-16 -0.6381116344E+00
  0.1600000000E+01  0.1000000000E+01  0.2570463033E+00  0.1155111671E+02  0.1019270304E-15 -0.3399051393E+01  0.6634234974E+15  0.1159243219E+02  0.1019789393E-15 -0.3364878269E+01
  0.1553011065E+01  0.1000000000E+01  0.2570463033E+00  0.1055851954E+02  0.1237378194E-15 -0.2322249092E+01  0.6634234974E+15  0.1059179968E+02  0.1242032801E-15 -0.2286056332E+01
  0.1457046303E+01  0.1000000000E+01  0.2570463033E+00  0.9307779519E+01  0.1799228709E-15 -0.2252387089E+01  0.6634234974E+15  0.9340832288E+01  0.1817093503E-15 -0.2222734158E+01
  0.1342953697E+01  0.1000000000E+01  0.2570463033E+00  0.7733497783E+01  0.1273633435E-15 -0.1215501678E+01  0.6634234974E+15  0.7767811712E+01  0.1292899296E-15 -0.1191187365E+01
  0.1246988935E+01  0.1000000000E+01  0.2570463033E+00  0.6480719568E+01  0.3910400777E-16 -0.2026241260E+01  0.6634234974E+15  0.6515389701E+01  0.4110858990E-16 -0.2004876728E+01
  0.1200000000E+01  0.1000000000E+01  0.2570463033E+00  0.6032793867E+01 -0.7474112501E-17 -0.1802133554E+01  0.6634234974E+15  0.6073184535E+01 -0.7455072120E-17 -0.1788103468E+01
  0.1600000000E+01  0.1000000000E+01  0.3530110648E+00  0.1020155748E+02  0.2055592591E-15 -0.3771760943E+01  0.6634234974E+15  0.1023689201E+02  0.2053498142E-15 -0.3738818761E+01
  0.1553011065E+01  0.1000000000E+01  0.3530110648E+00  0.1047571321E+02  0.2064072881E-15 -0.3716398105E+01  0.6634234974E+15  0.1051002221E+02  0.2066266089E-15 -0.3683609074E+01
  0.1457046303E+01  0.1000000000E+01  0.3530110648E+00  0.9369237992E+01  0.1904615551E-15 -0.3390607136E+01  0.6634234974E+15  0.9405203677E+01  0.1920782179E-15 -0.3356905618E+01
  0.1342953697E+01  0.1000000000E+01  0.3530110648E+00  0.8129050141E+01  0.1409261293E-15 -0.2732984780E+01  0.6634234974E+15  0.8166738089E+01  0.1418338922E-15 -0.2702183491E+01
  0.1246988935E+01  0.1000000000E+01  0.3530110648E+00  0.6704861827E+01  0.5898035467E-16 -0.3012830539E+01  0.6634234974E+15  0.6747656918E+01  0.5754815594E-16 -0.2988858976E+01
  0.1200000000E+01  0.1000000000E+01  0.3530110648E+00  0.6562757879E+01  0.2901620591E-16 -0.2985940783E+01  0.6634234974E+15  0.6613704671E+01  0.2899202955E-16 -0.2967786262E+01
  0.1600000000E+01  0.1000000000E+01  0.4000000000E+00  0.1044870069E+02  0.2063665070E-15 -0.4446259069E+01  0.6634234974E+15  0.1048817060E+02  0.2062378171E-15 -0.4404273142E+01
  0.1553011065E+01  0.1000000000E+01  0.4000000000E+00  0.9871327631E+01  0.2171716924E-15 -0.3712837904E+01  0.6634234974E+15  0.9907092235E+01  0.2164111384E-15 -0.3667100961E+01
  0.1457046303E+01  0.1000000000E+01  0.4000000000E+00  0.9341845166E+01  0.1814011356E-15 -0.3914803113E+01  0.6634234974E+15  0.9377625443E+01  0.1813241462E-15 -0.3871220759E+01
  0.1342953697E+01  0.1000000000E+01  0.4000000000E+00  0.7954316973E+01  0.1445059442E-15 -0.3143737030E+01  0.6634234974E+15  0.7996975482E+01  0.1471215432E-15 -0.3109596886E+01
  0.1246988935E+01  0.1000000000E+01  0.4000000000E+00  0.6897961408E+01  0.5600804325E-16 -0.3591964978E+01  0.6634234974E+15  0.6945044166E+01  0.5543458486E-16 -0.3568275453E+01
  0.1200000000E+01  0.1000000000E+01  0.4000000000E+00  0.6263418105E+01  0.3242492977E-16 -0.3300578674E+01  0.6634234974E+15  0.6323136400E+01  0.3239582796E-16 -0.3285195002E+01
ZONE I=6, J=6, K=1, F=POINT
  0.2000000000E+01  0.1000000000E+01  0.0000000000E+00  0.2401276910E+01  0.7313681751E-19  0.2123330142E+02  0.6634234974E+15  0.2430170341E+01  0.9581761444E-19  0.2215545077E+02
  0.1953011065E+01  0.1000000000E+01  0.0000000000E+00  0.1289105735E+01 -0.3726885303E-16 -0.1386156668E+00  0.6634234974E+15  0.1302005468E+01 -0.3621060499E-16 -0.1504769325E+00
  0.1857046303E+01  0.1000000000E+01  0.0000000000E+00 -0.3095760743E+00 -0.1894395065E-16  0.1523875895E+00  0.6634234974E+15 -0.2998050348E+00 -0.1885926623E-16  0.1504958799E+00
  0.1742953697E+01  0.1000000000E+01  0.0000000000E+00  0.1325660696E+00  0.2032084091E-18 -0.3706190851E-01  0.6634234974E+15  0.1420230358E+00  0.1187410225E-18 -0.3672267212E-01
  0.1646988935E+01  0.1000000000E+01  0.0000000000E+00 -0.1284176695E+00  0.3046205395E-18  0.6057991120E-01  0.6634234974E+15 -0.1188171448E+00  0.2495434063E-18  0.5953685271E-01
  0.1600000000E+01  0.1000000000E+01  0.0000000000E+00  0.8742974245E-01 -0.1026707169E-17 -0.8363548002E-01  0.6634234974E+15  0.9413618208E-01 -0.1134768377E-17 -0.8203858545E-01
  0.2000000000E+01  0.1000000000E+01  0.4698893521E-01 -0.1399048738E-01  0.7481768019E-18  0.4847975273E+02  0.6634234974E+15 -0.5545495974E-01  0.6866262749E-18  0.4866397688E+02
  0.1953011065E+01  0.1000000000E+01  0.4698893521E-01  0.1092887639E+02  0.1349639693E-15  0.1437016283E+01  0.6634234974E+15  0.1093927044E+02  0.1339681276E-15  0.1476115047E+01
  0.1857046303E+01  0.1000000000E+01  0.4698893521E-01  0.1156549847E+02  0.2837720920E-15 -0.1918581838E+01  0.6634234974E+15  0.1159199071E+02  0.2858122778E-15 -0.1892707800E+01
  0.1742953697E+01  0.1000000000E+01  0.4698893521E-01  0.5665263679E+01 -0.4328698296E-16 -0.6489820392E+00  0.6634234974E+15  0.5692247430E+01 -0.4302041648E-16 -0.6226368636E+00
  0.1646988935E+01  0.1000000000E+01  0.4698893521E-01  0.4409909990E+01 -0.1204124680E-15 -0.6089663009E+00  0.6634234974E+15  0.4436974058E+01 -0.1220607145E-15 -0.5853768176E+00
  0.1600000000E+01  0.1000000000E+01  0.4698893521E-01  0.2811976774E+01 -0.8436303260E-16  0.2404418804E+00  0.6634234974E+15  0.2840218278E+01 -0.8462177689E-16  0.2533412662E+00
  0.2000000000E+01  0.1000000000E+01  0.1429536967E+00 -0.2816113034E+00  0.2756046213E-17  0.5050010180E+02  0.6634234974E+15 -0.2576852768E+00  0.2770568327E-17  0.5044855803E+02
  0.1953011065E+01  0.1000000000E+01  0.1429536967E+00  0.2751803872E+01 -0.5129619064E-15  0.1631194915E+02  0.6634234974E+15  0.2758736448E+01 -0.5110221894E-15  0.1637783104E+02
  0.1857046303E+01  0.1000000000E+01  0.1429536967E+00  0.1261587804E+02 -0.2622659066E-15 -0.3710297717E+01  0.6634234974E+15  0.1262899296E+02 -0.2632583446E-15 -0.3665462243E+01
  0.1742953697E+01  0.1000000000E+01  0.1429536967E+00  0.9891556970E+01 -0.4019484737E-16 -0.4056007106E+01  0.6634234974E+15  0.9914826814E+01 -0.3838294114E-16 -0.4007046974E+01
  0.1646988935E+01  0.1000000000E+01  0.1429536967E+00  0.9335409804E+01 -0.1630341794E-15 -0.1972414802E+01  0.6634234974E+15  0.9374214501E+01 -0.1628201645E-15 -0.1923335047E+01
  0.1600000000E+01  0.1000000000E+01  0.1429536967E+00  0.6062903224E+01 -0.2859275040E-15 -0.1697414244E+01  0.6634234974E+15  0.6114031632E+01 -0.2847278112E-15 -0.1658799294E+01
  0.2000000000E+01  0.1000000000E+01  0.2570463033E+00  0.1889311919E-01  0.1132165527E-17  0.4987061667E+02  0.6634234974E+15  0.1797986811E-01  0.1115268762E-17  0.4988662614E+02