TITLE = "Generated from ../MESH/Convergence_0000000000.hmesh and Convergence_0000003200.hsol"
VARIABLES = "x","y","z","veloT_x","veloT_y","veloT_z","slr_4","velo_x","velo_y","velo_z"
ZONE I=6, J=6, K=1, F=POINT
  0.4000000000E+00  0.1000000000E+01  0.0000000000E+00 -0.1150099507E-01  0.2851825733E-19  0.7030000493E-02  0.6295942326E+15 -0.1142164276E-01  0.2828554439E-19  0.6948785169E-02
  0.3530110648E+00  0.1000000000E+01  0.0000000000E+00 -0.1173901933E-02  0.7139567801E-20 -0.3448971448E-03  0.6295942326E+15 -0.1106762045E-02  0.9458184860E-20 -0.3856842627E-03
  0.2570463033E+00  0.1000000000E+01  0.0000000000E+00 -0.1049735197E-03  0.5939558958E-21  0.2403063495E-02  0.6295942326E+15 -0.1344649124E-03  0.1280659804E-20  0.2381619019E-02
  0.1429536967E+00  0.1000000000E+01  0.0000000000E+00 -0.1067320381E-02  0.1018464298E-21 -0.1103805065E-02  0.6295942326E+15 -0.9996741319E-03  0.3080017703E-21 -0.1048593993E-02
  0.4698893521E-01  0.1000000000E+01  0.0000000000E+00  0.1705078002E-02 -0.2278785860E-20  0.1980561210E-02  0.6295942326E+15  0.1869239310E-02 -0.2251739872E-20  0.1959277138E-02
  0.0000000000E+00  0.1000000000E+01  0.0000000000E+00 -0.7485560300E-02  0.9963647675E-23  0.2050913356E-02  0.6295942326E+15 -0.7496164780E-02  0.1337257666E-22  0.2015043288E-02
  0.4000000000E+00  0.1000000000E+01  0.4698893521E-01  0.2657847399E+00  0.2800966651E-17 -0.3993248758E-01  0.6295942326E+15  0.2653069787E+00  0.2804139853E-17 -0.5404808662E-01
  0.3530110648E+00  0.1000000000E+01  0.4698893521E-01  0.1280960827E+00  0.2497758083E-17 -0.3555500223E-02  0.6295942326E+15  0.1264859439E+00  0.2529720891E-17 -0.1561580534E-01
  0.2570463033E+00  0.1000000000E+01  0.4698893521E-01  0.1018068871E+00  0.9214222792E-18 -0.1650146503E-01  0.6295942326E+15  0.9997240742E-01  0.9131781804E-18 -0.2383296847E-01
  0.1429536967E+00  0.1000000000E+01  0.4698893521E-01  0.6357625651E-02  0.1949768268E-18 -0.1060826532E-01  0.6295942326E+15  0.5124639069E-02  0.1896435756E-18 -0.1386682435E-01
  0.4698893521E-01  0.1000000000E+01  0.4698893521E-01 -0.1755909514E-02  0.3117412522E-19 -0.8720862474E-02  0.6295942326E+15 -0.2260396233E-02  0.3119171159E-19 -0.9055972479E-02
  0.0000000000E+00  0.1000000000E+01  0.4698893521E-01 -0.1800619354E-01  0.8983197580E-21  0.2503787204E-02  0.6295942326E+15 -0.1800369521E-01  0.9628621577E-21  0.2436362183E-02
  0.4000000000E+00  0.1000000000E+01  0.1429536967E+00  0.5857190614E+00  0.9169475041E-17 -0.9710281554E-01  0.6295942326E+15  0.5795345165E+00  0.9085803359E-17 -0.1288224355E+00
  0.3530110648E+00  0.1000000000E+01  0.1429536967E+00  0.3328761876E+00  0.5362942304E-17 -0.1398587503E+00  0.6295942326E+15  0.3243110405E+00  0.5552854963E-17 -0.1673730035E+00
  0.2570463033E+00  0.1000000000E+01  0.1429536967E+00  0.2385246298E+00  0.1974527924E-17 -0.9187150331E-01  0.6295942326E+15  0.2294983470E+00  0.1961075731E-17 -0.1101928015E+00
  0.1429536967E+00  0.1000000000E+01  0.1429536967E+00  0.4003465319E-01  0.6260937939E-18 -0.1125942935E+00  0.6295942326E+15  0.3286259166E-01  0.6221639003E-18 -0.1194527706E+00
  0.4698893521E-01  0.1000000000E+01  0.1429536967E+00 -0.5779427809E-02  0.1232641517E-18 -0.1086154416E-01  0.6295942326E+15 -0.9307343424E-02  0.1268575099E-18 -0.1144258308E-01
  0.0000000000E+00  0.1000000000E+01  0.1429536967E+00 -0.2129871147E-01 -0.2434704153E-21 -0.1009202303E-02  0.6295942326E+15 -0.2123263686E-01  0.2146036578E-21 -0.1083801407E-02
  0.4000000000E+00  0.1000000000E+01  0.2570463033E+00  0.6626930476E+00  0.2620939965E-17 -0.3263611857E+00  0.6295942326E+15  0.6430797969E+00  0.2602631601E-17 -0.3736157390E+00
  0.3530110648E+00  0.1000000000E+01  0.2570463033E+00  0.4952113783E+00  0.2029333920E-17 -0.3779407843E+00  0.6295942326E+15  0.4739764849E+00  0.1441898067E-17 -0.4189830139E+00
  0.2570463033E+00  0.1000000000E+01  0.2570463033E+00  0.3145887825E+00  0.1263495502E-17 -0.2691809613E+00  0.6295942326E+15  0.2910815351E+00  0.1270480866E-17 -0.2963784179E+00
  0.1429536967E+00  0.1000000000E+01  0.2570463033E+00  0.9728120720E-01  0.1061340602E-17 -0.2733988394E+00  0.6295942326E+15  0.7710822663E-01  0.1066294106E-17 -0.2841396192E+00
  0.4698893521E-01  0.1000000000E+01  0.2570463033E+00  0.1253708310E-01  0.8763529709E-18 -0.5177130734E-01  0.6295942326E+15  0.3508255602E-02  0.8678852146E-18 -0.5244921606E-01
  0.0000000000E+00  0.1000000000E+01  0.2570463033E+00 -0.1415783361E-01 -0.3071168748E-20 -0.7894787745E-03  0.6295942326E+15 -0.1419307664E-01 -0.4044206154E-20 -0.6999397608E-03
  0.4000000000E+00  0.1000000000E+01  0.3530110648E+00  0.6872088593E+00  0.2748933150E-17 -0.5666947426E+00  0.6295942326E+15  0.6555722996E+00  0.2773523625E-17 -0.6192709234E+00
  0.3530110648E+00  0.1000000000E+01  0.3530110648E+00  0.5103434373E+00  0.2429017161E-17 -0.5868305735E+00  0.6295942326E+15  0.4737122805E+00  0.2420069456E-17 -0.6321363683E+00
  0.2570463033E+00  0.1000000000E+01  0.3530110648E+00  0.3269018128E+00  0.8202568280E-18 -0.4598461858E+00  0.6295942326E+15  0.2879774598E+00  0.1222394553E-17 -0.4877048487E+00
  0.1429536967E+00  0.1000000000E+01  0.3530110648E+00  0.1077579366E+00  0.1437116350E-17 -0.4058618316E+00  0.6295942326E+15  0.7470243264E-01  0.1530841309E-17 -0.4169579724E+00
  0.4698893521E-01  0.1000000000E+01  0.3530110648E+00  0.1924861494E-01  0.4393631714E-18 -0.1129458075E+00  0.6295942326E+15  0.2666887850E-02  0.4435601707E-18 -0.1134327032E+00
  0.0000000000E+00  0.1000000000E+01  0.3530110648E+00 -0.1437815764E-01  0.5833147049E-20 -0.7225906280E-03  0.6295942326E+15 -0.1447031593E-01  0.5102135209E-20 -0.4722000061E-03
  0.4000000000E+00  0.1000000000E+01  0.4000000000E+00  0.6618975610E+00  0.4847095722E-17 -0.6849543353E+00  0.6295942326E+15  0.6244620867E+00  0.4850786321E-17 -0.7316137917E+00
  0.3530110648E+00  0.1000000000E+01  0.4000000000E+00  0.5373636305E+00  0.4066602778E-17 -0.6986674749E+00  0.6295942326E+15  0.4923769313E+00  0.4166071487E-17 -0.7384485170E+00
  0.2570463033E+00  0.1000000000E+01  0.4000000000E+00  0.3300530346E+00  0.1362015425E-17 -0.5582361096E+00  0.6295942326E+15  0.2831260048E+00  0.1251250553E-17 -0.5816547842E+00
  0.1429536967E+00  0.1000000000E+01  0.4000000000E+00  0.1207401298E+00  0.1714489878E-17 -0.4770395590E+00  0.6295942326E+15  0.8217616033E-01  0.1643508099E-17 -0.4844123363E+00
  0.4698893521E-01  0.1000000000E+01  0.4000000000E+00  0.1730979538E-01  0.4368745144E-18 -0.1410852012E+00  0.6295942326E+15 -0.2612013422E-02  0.4378013414E-18 -0.1406076358E+00
  0.0000000000E+00  0.1000000000E+01  0.4000000000E+00 -0.7178129063E-02  0.7710344718E-20 -0.2080414796E-02  0.6295942326E+15 -0.7504811423E-02  0.7885652486E-20 -0.1896688963E-02
ZONE I=6, J=6, K=1, F=POINT
  0.8000000000E+00  0.1000000000E+01  0.0000000000E+00  0.1817067277E-01 -0.8457459579E-19 -0.1153989829E-01  0.6295942326E+15  0.1875068858E-01 -0.8554674794E-19 -0.1161541547E-01
  0.7530110648E+00  0.1000000000E+01  0.0000000000E+00  0.2439155814E-02  0.8527108149E-19  0.6002676533E-02  0.6295942326E+15  0.2941908105E-02  0.1035880647E-18  0.6008670693E-02
  0.6570463033E+00  0.1000000000E+01  0.0000000000E+00 -0.1564985364E-03  0.2615797189E-19  0.2550904216E-03  0.6295942326E+15  0.2340759527E-03  0.3315395652E-19  0.2786687268E-03
  0.5429536967E+00  0.1000000000E+01  0.0000000000E+00  0.1203913441E-02  0.3616696458E-19  0.6880202925E-02  0.6295942326E+15  0.1468770090E-02  0.4623212324E-19  0.6912020532E-02
  0.4469889352E+00  0.1000000000E+01  0.0000000000E+00 -0.1607995905E-02 -0.3089896593E-19  0.5519599475E-03  0.6295942326E+15 -0.1407421624E-02 -0.2051255189E-19  0.5194804222E-03
  0.4000000000E+00  0.1000000000E+01  0.0000000000E+00  0.1482317219E-01  0.3219617110E-19  0.6714394422E-02  0.6295942326E+15  0.1496914760E-01  0.3198997438E-19  0.6654364431E-02
  0.8000000000E+00  0.1000000000E+01  0.4698893521E-01  0.3096892995E+00 -0.2469317236E-16  0.1149156108E-01  0.6295942326E+15  0.3130295158E+00 -0.2472769337E-16 -0.8735692720E-02
  0.7530110648E+00  0.1000000000E+01  0.4698893521E-01  0.5065057568E+00 -0.2404626039E-16 -0.4675437106E-01  0.6295942326E+15  0.5082991761E+00 -0.2412202482E-16 -0.6751554925E-01
  0.6570463033E+00  0.1000000000E+01  0.4698893521E-01  0.2924929941E+00 -0.5115087513E-17 -0.1463095354E-01  0.6295942326E+15  0.2934587017E+00 -0.5130882176E-17 -0.3327825916E-01
  0.5429536967E+00  0.1000000000E+01  0.4698893521E-01  0.3268543794E+00  0.4111655986E-17 -0.3033808948E-02  0.6295942326E+15  0.3280364167E+00  0.4122055404E-17 -0.1932169743E-01
  0.4469889352E+00  0.1000000000E+01  0.4698893521E-01  0.2016260826E+00  0.3748595371E-17  0.4920451627E-02  0.6295942326E+15  0.2023516151E+00  0.3757352647E-17 -0.1011048215E-01
  0.4000000000E+00  0.1000000000E+01  0.4698893521E-01  0.3078623998E+00  0.2559811101E-17 -0.4069085530E-01  0.6295942326E+15  0.3073882268E+00  0.2562873822E-17 -0.5480077119E-01
  0.8000000000E+00  0.1000000000E+01  0.1429536967E+00  0.9613060161E+00 -0.5624664099E-16 -0.3371714032E+00  0.6295942326E+15  0.9703608609E+00 -0.5597481388E-16 -0.3742074614E+00
  0.7530110648E+00  0.1000000000E+01  0.1429536967E+00  0.1265589177E+01 -0.3603182142E-16 -0.1893207896E+00  0.6295942326E+15  0.1270253627E+01 -0.3579470341E-16 -0.2303631633E+00
  0.6570463033E+00  0.1000000000E+01  0.1429536967E+00  0.8453919018E+00 -0.5110917148E-17 -0.1764601788E+00  0.6295942326E+15  0.8455657251E+00 -0.5145693771E-17 -0.2222414291E+00
  0.5429536967E+00  0.1000000000E+01  0.1429536967E+00  0.7972623777E+00  0.8763422953E-17 -0.3076778964E-01  0.6295942326E+15  0.7950085558E+00  0.8672829953E-17 -0.7465022014E-01
  0.4469889352E+00  0.1000000000E+01  0.1429536967E+00  0.5114540626E+00  0.8854451599E-17 -0.1161019650E+00  0.6295942326E+15  0.5067237565E+00  0.9063141503E-17 -0.1524127504E+00
  0.4000000000E+00  0.1000000000E+01  0.1429536967E+00  0.6374676973E+00  0.9884709498E-17 -0.9655494645E-01  0.6295942326E+15  0.6309002080E+00  0.9797140439E-17 -0.1282786083E+00
  0.8000000000E+00  0.1000000000E+01  0.2570463033E+00  0.1836768852E+01 -0.1677877459E-16 -0.8294526950E+00  0.6295942326E+15  0.1859639443E+01 -0.1674090302E-16 -0.8693852670E+00
  0.7530110648E+00  0.1000000000E+01  0.2570463033E+00  0.1729466669E+01 -0.1215779719E-16 -0.5760785887E+00  0.6295942326E+15  0.1747797914E+01 -0.1290799919E-16 -0.6226184220E+00
  0.6570463033E+00  0.1000000000E+01  0.2570463033E+00  0.1308430796E+01 -0.5605725798E-17 -0.5120671425E+00  0.6295942326E+15  0.1315275612E+01 -0.5773364933E-17 -0.5701221198E+00
  0.5429536967E+00  0.1000000000E+01  0.2570463033E+00  0.1020984567E+01  0.1141848768E-17 -0.2549849077E+00  0.6295942326E+15  0.1012854381E+01  0.1024471083E-17 -0.3157467485E+00
  0.4469889352E+00  0.1000000000E+01  0.2570463033E+00  0.7278268327E+00  0.2817784526E-17 -0.3661057866E+00  0.6295942326E+15  0.7100220097E+00  0.2147385816E-17 -0.4192538558E+00
  0.4000000000E+00  0.1000000000E+01  0.2570463033E+00  0.6937168051E+00  0.2646750115E-17 -0.3257119217E+00  0.6295942326E+15  0.6738421251E+00  0.2626590859E-17 -0.3730065280E+00
  0.8000000000E+00  0.1000000000E+01  0.3530110648E+00  0.1943272492E+01 -0.2844181022E-17 -0.1244548891E+01  0.6295942326E+15  0.1979708391E+01 -0.2882183556E-17 -0.1285381924E+01
  0.7530110648E+00  0.1000000000E+01  0.3530110648E+00  0.1876384427E+01  0.1124109640E-17 -0.1029067139E+01  0.6295942326E+15  0.1907884432E+01  0.2849091507E-17 -0.1075782513E+01
  0.6570463033E+00  0.1000000000E+01  0.3530110648E+00  0.1426741700E+01 -0.3054868435E-17 -0.8580930230E+00  0.6295942326E+15  0.1441920621E+01 -0.2753753280E-17 -0.9145477699E+00
  0.5429536967E+00  0.1000000000E+01  0.3530110648E+00  0.1087750991E+01 -0.3136443546E-17 -0.5577704561E+00  0.6295942326E+15  0.1078340011E+01 -0.2024410270E-17 -0.6195531796E+00
  0.4469889352E+00  0.1000000000E+01  0.3530110648E+00  0.7392221074E+00  0.2026767709E-17 -0.6031759133E+00  0.6295942326E+15  0.7119779149E+00  0.2470173693E-17 -0.6608447514E+00
  0.4000000000E+00  0.1000000000E+01  0.3530110648E+00  0.7203563891E+00  0.2722330138E-17 -0.5664840646E+00  0.6295942326E+15  0.6878918181E+00  0.2750963128E-17 -0.6190729900E+00
  0.8000000000E+00  0.1000000000E+01  0.4000000000E+00  0.1989300995E+01 -0.9062706030E-17 -0.1500482954E+01  0.6295942326E+15  0.2031109115E+01 -0.9062774388E-17 -0.1541788298E+01
  0.7530110648E+00  0.1000000000E+01  0.4000000000E+00  0.1802493974E+01 -0.5458852199E-17 -0.1223982236E+01  0.6295942326E+15  0.1839056242E+01 -0.5100557706E-17 -0.1270124899E+01
  0.6570463033E+00  0.1000000000E+01  0.4000000000E+00  0.1407721568E+01 -0.2471300692E-17 -0.1042783086E+01  0.6295942326E+15  0.1426767312E+01 -0.2673350169E-17 -0.1097476517E+01
  0.5429536967E+00  0.1000000000E+01  0.4000000000E+00  0.1052511730E+01  0.4369526383E-17 -0.7515061766E+00  0.6295942326E+15  0.1043108174E+01  0.3612994310E-17 -0.8114412573E+00
  0.4469889352E+00  0.1000000000E+01  0.4000000000E+00  0.7813928524E+00  0.5625582934E-17 -0.7477294543E+00  0.6295942326E+15  0.7495639088E+00  0.5131198187E-17 -0.8001432733E+00
  0.4000000000E+00  0.1000000000E+01  0.4000000000E+00  0.6739221174E+00  0.4863062609E-17 -0.6842085973E+00  0.6295942326E+15  0.6358456507E+00  0.4868198603E-17 -0.7309264053E+00
ZONE I=6, J=6, K=1, F=POINT
  0.1200000000E+01  0.1000000000E+01  0.0000000000E+00 -0.3088384974E-01  0.5769787202E-19  0.3690933157E-01  0.6295942326E+15 -0.3046677538E-01  0.5939317708E-19  0.3632523212E-01
  0.1153011065E+01  0.1000000000E+01  0.0000000000E+00 -0.4169765248E-02 -0.1845726485E-18 -0.9542444547E-02  0.6295942326E+15 -0.3879153273E-02 -0.1628360018E-18 -0.9671607448E-02
  0.1057046303E+01  0.1000000000E+01  0.0000000000E+00  0.3107813330E-02  0.4619864048E-19  0.5966581583E-02  0.6295942326E+15  0.3510081292E-02  0.5547069868E-19  0.6001010229E-02
  0.9429536967E+00  0.1000000000E+01  0.0000000000E+00 -0.1202394557E-02  0.3495775468E-20 -0.8336687469E-02  0.6295942326E+15 -0.7542878560E-03  0.7957390179E-20 -0.8363247327E-02
  0.8469889352E+00  0.1000000000E+01  0.0000000000E+00  0.4280720550E-02 -0.2009879714E-19  0.5253991442E-02  0.6295942326E+15  0.4709147525E-02 -0.1926233563E-19  0.5255626126E-02
  0.8000000000E+00  0.1000000000E+01  0.0000000000E+00 -0.2657125515E-01 -0.9429757673E-19 -0.1100477830E-01  0.6295942326E+15 -0.2612959318E-01 -0.9525257226E-19 -0.1107919482E-01
  0.1200000000E+01  0.1000000000E+01  0.4698893521E-01  0.2111205183E+01 -0.4206691801E-16 -0.2216328929E+00  0.6295942326E+15  0.2116100286E+01 -0.4225828177E-16 -0.2094623677E+00
  0.1153011065E+01  0.1000000000E+01  0.4698893521E-01  0.1433094841E+01 -0.2668005261E-16 -0.7308639522E-01  0.6295942326E+15  0.1437828224E+01 -0.2683486971E-16 -0.6394022162E-01
  0.1057046303E+01  0.1000000000E+01  0.4698893521E-01  0.1310949785E+01 -0.1317437743E-16 -0.1029420062E+00  0.6295942326E+15  0.1316041890E+01 -0.1311196140E-16 -0.1018621485E+00
  0.9429536967E+00  0.1000000000E+01  0.4698893521E-01  0.7237607451E+00 -0.1586877454E-16 -0.8485842723E-01  0.6295942326E+15  0.7294111742E+00 -0.1602447987E-16 -0.9335999351E-01
  0.8469889352E+00  0.1000000000E+01  0.4698893521E-01  0.6335770951E+00 -0.2884315229E-16 -0.7786555120E-01  0.6295942326E+15  0.6388021561E+00 -0.2905958267E-16 -0.9507237408E-01
  0.8000000000E+00  0.1000000000E+01  0.4698893521E-01  0.2490638909E+00 -0.2399866202E-16  0.1354840254E-01  0.6295942326E+15  0.2530084026E+00 -0.2404553431E-16 -0.6735953506E-02
  0.1200000000E+01  0.1000000000E+01  0.1429536967E+00  0.4798080500E+01 -0.5924317463E-16 -0.6178624107E+00  0.6295942326E+15  0.4812668395E+01 -0.5950904863E-16 -0.6079889495E+00
  0.1153011065E+01  0.1000000000E+01  0.1429536967E+00  0.3364222554E+01 -0.6978926582E-16 -0.8199778202E+00  0.6295942326E+15  0.3379291330E+01 -0.6903679090E-16 -0.8139689406E+00
  0.1057046303E+01  0.1000000000E+01  0.1429536967E+00  0.3022165508E+01 -0.4169490267E-16 -0.5981347232E+00  0.6295942326E+15  0.3038587614E+01 -0.4173987157E-16 -0.6033401373E+00
  0.9429536967E+00  0.1000000000E+01  0.1429536967E+00  0.1821407006E+01 -0.3723113934E-16 -0.7012057641E+00  0.6295942326E+15  0.1838992310E+01 -0.3724732828E-16 -0.7215646486E+00
  0.8469889352E+00  0.1000000000E+01  0.1429536967E+00  0.1575504803E+01 -0.5264130640E-16 -0.3583567154E+00  0.6295942326E+15  0.1590923050E+01 -0.5283687584E-16 -0.3907429321E+00
  0.8000000000E+00  0.1000000000E+01  0.1429536967E+00  0.8773519552E+00 -0.5847589682E-16 -0.3387805230E+00  0.6295942326E+15  0.8886536063E+00 -0.5819522404E-16 -0.3757833949E+00
  0.1200000000E+01  0.1000000000E+01  0.2570463033E+00  0.4773933995E+01 -0.1080714548E-16 -0.1642350127E+01  0.6295942326E+15  0.4791805774E+01 -0.1075533613E-16 -0.1645551733E+01
  0.1153011065E+01  0.1000000000E+01  0.2570463033E+00  0.4268865036E+01 -0.4450472157E-16 -0.1881345295E+01  0.6295942326E+15  0.4291997974E+01 -0.4694715014E-16 -0.1887467312E+01
  0.1057046303E+01  0.1000000000E+01  0.2570463033E+00  0.3507829450E+01 -0.3845446813E-16 -0.1476053056E+01  0.6295942326E+15  0.3537535819E+01 -0.3840657276E-16 -0.1488679969E+01
  0.9429536967E+00  0.1000000000E+01  0.2570463033E+00  0.2638459919E+01 -0.3556175068E-16 -0.1523376946E+01  0.6295942326E+15  0.2669902899E+01 -0.3721171703E-16 -0.1547515209E+01
  0.8469889352E+00  0.1000000000E+01  0.2570463033E+00  0.2167636634E+01 -0.1918226443E-16 -0.9040608227E+00  0.6295942326E+15  0.2195479813E+01 -0.1872952425E-16 -0.9384150801E+00
  0.8000000000E+00  0.1000000000E+01  0.2570463033E+00  0.1798527795E+01 -0.1692313414E-16 -0.8318925270E+00  0.6295942326E+15  0.1822404324E+01 -0.1689586940E-16 -0.8715046210E+00
  0.1200000000E+01  0.1000000000E+01  0.3530110648E+00  0.4829490960E+01  0.2493652808E-16 -0.2701905745E+01  0.6295942326E+15  0.4852108381E+01  0.2495807770E-16 -0.2712270024E+01
  0.1153011065E+01  0.1000000000E+01  0.3530110648E+00  0.4142427070E+01  0.4469302633E-17 -0.2608635262E+01  0.6295942326E+15  0.4170666628E+01  0.4120215278E-17 -0.2620846862E+01
  0.1057046303E+01  0.1000000000E+01  0.3530110648E+00  0.3508673553E+01 -0.1621747978E-16 -0.2217720913E+01  0.6295942326E+15  0.3544874128E+01 -0.1600701726E-16 -0.2235408691E+01
  0.9429536967E+00  0.1000000000E+01  0.3530110648E+00  0.2688225970E+01 -0.2117037880E-16 -0.2017653056E+01  0.6295942326E+15  0.2728823566E+01 -0.2229345848E-16 -0.2041438879E+01
  0.8469889352E+00  0.1000000000E+01  0.3530110648E+00  0.2322970468E+01 -0.7534675473E-17 -0.1428167977E+01  0.6295942326E+15  0.2362782162E+01 -0.6115035684E-17 -0.1462946125E+01
  0.8000000000E+00  0.1000000000E+01  0.3530110648E+00  0.1896863220E+01 -0.2782882647E-17 -0.1244777164E+01  0.6295942326E+15  0.1933954093E+01 -0.2821665596E-17 -0.1285651775E+01
  0.1200000000E+01  0.1000000000E+01  0.4000000000E+00  0.4447382223E+01  0.2953180677E-16 -0.2973832001E+01  0.6295942326E+15  0.4468675643E+01  0.2953778783E-16 -0.2988379582E+01
  0.1153011065E+01  0.1000000000E+01  0.4000000000E+00  0.4125194500E+01  0.1982316514E-16 -0.3062696729E+01  0.6295942326E+15  0.4156331440E+01  0.2040014305E-16 -0.3079237679E+01
  0.1057046303E+01  0.1000000000E+01  0.4000000000E+00  0.3363839849E+01 -0.5284416894E-17 -0.2540447722E+01  0.6295942326E+15  0.3402137633E+01 -0.5065505389E-17 -0.2563020765E+01
  0.9429536967E+00  0.1000000000E+01  0.4000000000E+00  0.2677269254E+01 -0.2053606826E-16 -0.2314816495E+01  0.6295942326E+15  0.2720900380E+01 -0.2154505472E-16 -0.2340727172E+01
  0.8469889352E+00  0.1000000000E+01  0.4000000000E+00  0.2212024699E+01 -0.1464489009E-16 -0.1647430366E+01  0.6295942326E+15  0.2258664856E+01 -0.1417706474E-16 -0.1683471577E+01
  0.8000000000E+00  0.1000000000E+01  0.4000000000E+00  0.1985342727E+01 -0.9040498853E-17 -0.1503692868E+01  0.6295942326E+15  0.2026219272E+01 -0.9045313972E-17 -0.1544643399E+01
ZONE I=6, J=6, K=1, F=POINT
  0.1600000000E+01  0.1000000000E+01  0.0000000000E+00  0.1305893063E+00 -0.8966858340E-18 -0.7228706051E-01  0.6295942326E+15  0.1307241527E+00 -0.1018825339E-17 -0.7182002403E-01
  0.1553011065E+01  0.1000000000E+01  0.0000000000E+00  0.1068531103E-01 -0.1325007217E-17  0.4517305213E-01  0.6295942326E+15  0.1131871030E-01 -0.1386905864E-17  0.4514726931E-01
  0.1457046303E+01  0.1000000000E+01  0.0000000000E+00 -0.6831723408E-02 -0.9541308002E-19 -0.3327750256E-02  0.6295942326E+15 -0.6386012582E-02 -0.1251020795E-18 -0.3298443120E-02
  0.1342953697E+01  0.1000000000E+01  0.0000000000E+00  0.5953072671E-02  0.4373632100E-18  0.2990794982E-01  0.6295942326E+15  0.6500188460E-02  0.4695551192E-18  0.2983241792E-01
  0.1246988935E+01  0.1000000000E+01  0.0000000000E+00 -0.6818242972E-02  0.1318081278E-18 -0.8178513875E-02  0.6295942326E+15 -0.6297186302E-02  0.1302812727E-18 -0.8338204354E-02
  0.1200000000E+01  0.1000000000E+01  0.0000000000E+00  0.5844166970E-01  0.6177634050E-19  0.3696429962E-01  0.6295942326E+15  0.5891751739E-01  0.6401865554E-19  0.3637332857E-01
  0.1600000000E+01  0.1000000000E+01  0.4698893521E-01  0.2978474310E+01 -0.8937688537E-16  0.1978445934E+00  0.6295942326E+15  0.2978366764E+01 -0.8937327805E-16  0.1989039685E+00
  0.1553011065E+01  0.1000000000E+01  0.4698893521E-01  0.3432673194E+01 -0.4489290475E-16 -0.3048297911E+00  0.6295942326E+15  0.3435352010E+01 -0.4481230919E-16 -0.3019817361E+00
  0.1457046303E+01  0.1000000000E+01  0.4698893521E-01  0.2425539042E+01 -0.5127938509E-17 -0.1096199255E+00  0.6295942326E+15  0.2428507406E+01 -0.5200127264E-17 -0.1033009440E+00
  0.1342953697E+01  0.1000000000E+01  0.4698893521E-01  0.2402640533E+01  0.2890109783E-16 -0.8123050260E-01  0.6295942326E+15  0.2405488045E+01  0.2893111326E-16 -0.7071111695E-01
  0.1246988935E+01  0.1000000000E+01  0.4698893521E-01  0.1837783935E+01 -0.6661829752E-17 -0.4667183559E-01  0.6295942326E+15  0.1841821357E+01 -0.6499855314E-17 -0.3389498834E-01
  0.1200000000E+01  0.1000000000E+01  0.4698893521E-01  0.2209191889E+01 -0.4627141769E-16 -0.2273170896E+00  0.6295942326E+15  0.2212335242E+01 -0.4644489753E-16 -0.2147595320E+00
  0.1600000000E+01  0.1000000000E+01  0.1429536967E+00  0.6155185999E+01 -0.2675304420E-15 -0.1936628399E+01  0.6295942326E+15  0.6136362480E+01 -0.2677012597E-15 -0.1930380553E+01
  0.1553011065E+01  0.1000000000E+01  0.1429536967E+00  0.7782439883E+01 -0.1459728700E-15 -0.1084387763E+01  0.6295942326E+15  0.7780142437E+01 -0.1460998630E-15 -0.1076493632E+01
  0.1457046303E+01  0.1000000000E+01  0.1429536967E+00  0.5641555332E+01  0.3166762806E-16 -0.1017263354E+01  0.6295942326E+15  0.5641603703E+01  0.3148063553E-16 -0.1005858420E+01
  0.1342953697E+01  0.1000000000E+01  0.1429536967E+00  0.5569857059E+01  0.1016094199E-15 -0.2413785732E+00  0.6295942326E+15  0.5570404667E+01  0.1016491996E-15 -0.2279463189E+00
  0.1246988935E+01  0.1000000000E+01  0.1429536967E+00  0.4228706134E+01  0.2632946537E-16 -0.7489484649E+00  0.6295942326E+15  0.4234761476E+01  0.2597118028E-16 -0.7362024466E+00
  0.1200000000E+01  0.1000000000E+01  0.1429536967E+00  0.4963203596E+01 -0.6340460371E-16 -0.6126493211E+00  0.6295942326E+15  0.4967772037E+01 -0.6354737614E-16 -0.6033755900E+00
  0.1600000000E+01  0.1000000000E+01  0.2570463033E+00  0.1075366805E+02  0.9035175527E-16 -0.3959636270E+01  0.6295942326E+15  0.1075679039E+02  0.9028903985E-16 -0.3956899136E+01
  0.1553011065E+01  0.1000000000E+01  0.2570463033E+00  0.9593957794E+01  0.1149075319E-15 -0.2820937435E+01  0.6295942326E+15  0.9594386264E+01  0.1148776855E-15 -0.2815186933E+01
  0.1457046303E+01  0.1000000000E+01  0.2570463033E+00  0.8115531661E+01  0.1823497734E-15 -0.2560887983E+01  0.6295942326E+15  0.8115322944E+01  0.1822158450E-15 -0.2558454706E+01
  0.1342953697E+01  0.1000000000E+01  0.2570463033E+00  0.6446544405E+01  0.1327505138E-15 -0.1249932107E+01  0.6295942326E+15  0.6449880120E+01  0.1329096058E-15 -0.1249071630E+01
  0.1246988935E+01  0.1000000000E+01  0.2570463033E+00  0.5223635434E+01  0.4037752189E-16 -0.1887485609E+01  0.6295942326E+15  0.5235169304E+01  0.4092622160E-16 -0.1888320892E+01
  0.1200000000E+01  0.1000000000E+01  0.2570463033E+00  0.4813556036E+01 -0.1109386265E-16 -0.1633386317E+01  0.6295942326E+15  0.4831735879E+01 -0.1105538237E-16 -0.1639001429E+01
  0.1600000000E+01  0.1000000000E+01  0.3530110648E+00  0.8969580877E+01  0.1790020345E-15 -0.4664583050E+01  0.6295942326E+15  0.8966791100E+01  0.1789514809E-15 -0.4661579272E+01
  0.1553011065E+01  0.1000000000E+01  0.3530110648E+00  0.9057492774E+01  0.1889955482E-15 -0.4497929786E+01  0.6295942326E+15  0.9063109741E+01  0.1890167164E-15 -0.4498204025E+01
  0.1457046303E+01  0.1000000000E+01  0.3530110648E+00  0.7711749476E+01  0.1891315662E-15 -0.3846754065E+01  0.6295942326E+15  0.7716009840E+01  0.1893821661E-15 -0.3853893097E+01
  0.1342953697E+01  0.1000000000E+01  0.3530110648E+00  0.6382679422E+01  0.1454927849E-15 -0.2772636140E+01  0.6295942326E+15  0.6386524139E+01  0.1456953908E-15 -0.2782839989E+01
  0.1246988935E+01  0.1000000000E+01  0.3530110648E+00  0.4997450834E+01  0.5790689660E-16 -0.2791446193E+01  0.6295942326E+15  0.5011567904E+01  0.5766908565E-16 -0.2801037634E+01
  0.1200000000E+01  0.1000000000E+01  0.3530110648E+00  0.4906864166E+01  0.2504307082E-16 -0.2702518079E+01  0.6295942326E+15  0.4926052375E+01  0.2503212625E-16 -0.2712468310E+01
  0.1600000000E+01  0.1000000000E+01  0.4000000000E+00  0.9039875934E+01  0.1764830706E-15 -0.5506961499E+01  0.6295942326E+15  0.9042241576E+01  0.1764086895E-15 -0.5510254857E+01
  0.1553011065E+01  0.1000000000E+01  0.4000000000E+00  0.8268000050E+01  0.1979337438E-15 -0.4629528837E+01  0.6295942326E+15  0.8277601185E+01  0.1978625687E-15 -0.4632595487E+01
  0.1457046303E+01  0.1000000000E+01  0.4000000000E+00  0.7487858531E+01  0.1785331068E-15 -0.4453440695E+01  0.6295942326E+15  0.7493943466E+01  0.1784899819E-15 -0.4459171313E+01
  0.1342953697E+01  0.1000000000E+01  0.4000000000E+00  0.6012569835E+01  0.1518964905E-15 -0.3193195332E+01  0.6295942326E+15  0.6018425626E+01  0.1519954805E-15 -0.3206651335E+01
  0.1246988935E+01  0.1000000000E+01  0.4000000000E+00  0.4999898567E+01  0.5721435889E-16 -0.3339828965E+01  0.6295942326E+15  0.5013009468E+01  0.5725966666E-16 -0.3353124141E+01
  0.1200000000E+01  0.1000000000E+01  0.4000000000E+00  0.4421644346E+01  0.2979605174E-16 -0.2962484097E+01  0.6295942326E+15  0.4444885486E+01  0.2978634835E-16 -0.2979270465E+01
ZONE I=6, J=6, K=1, F=POINT
  0.2000000000E+01  0.1000000000E+01  0.0000000000E+00  0.2402428548E+01  0.7390422056E-19  0.2123407243E+02  0.6295942326E+15  0.2430385418E+01  0.9465625784E-19  0.2215533700E+02
  0.1953011065E+01  0.1000000000E+01  0.0000000000E+00  0.1291763503E+01 -0.3737165050E-16 -0.1373709163E+00  0.6295942326E+15  0.1296298404E+01 -0.3611950362E-16 -0.1504103461E+00
  0.1857046303E+01  0.1000000000E+01  0.0000000000E+00 -0.3064799554E+00 -0.1880349188E-16  0.1518540612E+00  0.6295942326E+15 -0.3067060144E+00 -0.1926988486E-16  0.1503976732E+00
  0.1742953697E+01  0.1000000000E+01  0.0000000000E+00  0.1346406181E+00  0.2301105220E-18 -0.3740214318E-01  0.6295942326E+15  0.1354036972E+00  0.1264852466E-18 -0.3705111911E-01
  0.1646988935E+01  0.1000000000E+01  0.0000000000E+00 -0.1268010229E+00  0.3382494002E-18  0.6073879742E-01  0.6295942326E+15 -0.1265582891E+00  0.3039880607E-18  0.5988632684E-01
  0.1600000000E+01  0.1000000000E+01  0.0000000000E+00  0.8927657253E-01 -0.9750610417E-18 -0.8444194423E-01  0.6295942326E+15  0.8860083982E-01 -0.1099551900E-17 -0.8261872982E-01
  0.2000000000E+01  0.1000000000E+01  0.4698893521E-01 -0.1172534013E-01  0.7444747866E-18  0.4848299517E+02  0.6295942326E+15 -0.5423455353E-01  0.6865039571E-18  0.4865837070E+02
  0.1953011065E+01  0.1000000000E+01  0.4698893521E-01  0.1096574972E+02  0.1381411776E-15  0.1470528693E+01  0.6295942326E+15  0.1095610571E+02  0.1369407902E-15  0.1490717001E+01
  0.1857046303E+01  0.1000000000E+01  0.4698893521E-01  0.1169152972E+02  0.2944100755E-15 -0.1881529368E+01  0.6295942326E+15  0.1169635809E+02  0.2948874973E-15 -0.1875858047E+01
  0.1742953697E+01  0.1000000000E+01  0.4698893521E-01  0.5815403260E+01 -0.3490436055E-16 -0.6633849197E+00  0.6295942326E+15  0.5821505069E+01 -0.3457099973E-16 -0.6639023682E+00
  0.1646988935E+01  0.1000000000E+01  0.4698893521E-01  0.4463836232E+01 -0.1215772887E-15 -0.6573319485E+00  0.6295942326E+15  0.4464138637E+01 -0.1217881829E-15 -0.6557289356E+00
  0.1600000000E+01  0.1000000000E+01  0.4698893521E-01  0.2815900538E+01 -0.8655429055E-16  0.1836151715E+00  0.6295942326E+15  0.2824470499E+01 -0.8635200782E-16  0.1793793443E+00
  0.2000000000E+01  0.1000000000E+01  0.1429536967E+00 -0.2814943876E+00  0.2717275507E-17  0.5050356726E+02  0.6295942326E+15 -0.2570351526E+00  0.2738632984E-17  0.5044094219E+02
  0.1953011065E+01  0.1000000000E+01  0.1429536967E+00  0.2803908532E+01 -0.5136352044E-15  0.1644173712E+02  0.6295942326E+15  0.2790146029E+01 -0.5135450275E-15  0.1648245569E+02
  0.1857046303E+01  0.1000000000E+01  0.1429536967E+00  0.1277011053E+02 -0.2558961858E-15 -0.3578161146E+01  0.6295942326E+15  0.1277156370E+02 -0.2562280698E-15 -0.3565813769E+01
  0.1742953697E+01  0.1000000000E+01  0.1429536967E+00  0.9984995803E+01 -0.1165490063E-16 -0.4163854379E+01  0.6295942326E+15  0.9992003644E+01 -0.1152032856E-16 -0.4161628397E+01
  0.1646988935E+01  0.1000000000E+01  0.1429536967E+00  0.9208405590E+01 -0.1583192872E-15 -0.2194081248E+01  0.6295942326E+15  0.9208048989E+01 -0.1580823095E-15 -0.2188290829E+01
  0.1600000000E+01  0.1000000000E+01  0.1429536967E+00  0.5784934829E+01 -0.2840171850E-15 -0.1936378726E+01  0.6295942326E+15  0.5805973567E+01 -0.2845477771E-15 -0.1934956604E+01
  0.2000000000E+01  0.1000000000E+01  0.2570463033E+00  0.1906030184E-01  0.1098158700E-17  0.4987310171E+02  0.6295942326E+15  0.1818369688E-01  0.1052872275E-17  0.4987833765E+02