TITLE = "Generated from ../MESH/Convergence_0000000000.hmesh and Convergence_0000000600.hsol"
VARIABLES = "x","y","z","veloT_x","veloT_y","veloT_z","slr_4","velo_x","velo_y","velo_z"
ZONE I=6, J=6, K=1, F=POINT
  0.4000000000E+00  0.1000000000E+01  0.0000000000E+00 -0.1077543209E-01  0.3329750191E-19  0.7217734338E-02  0.6272702736E+15 -0.1486156576E-01  0.3265458962E-19  0.6670539259E-02
  0.3530110648E+00  0.1000000000E+01  0.0000000000E+00  0.2069626560E-02  0.1355901948E-19 -0.1105515019E-03  0.6272702736E+15 -0.3985711538E-02  0.1247025479E-19 -0.3505606985E-03
  0.2570463033E+00  0.1000000000E+01  0.0000000000E+00  0.3581526397E-02  0.2690108732E-20  0.2335905797E-02  0.6272702736E+15 -0.2313735110E-02  0.1792127708E-20  0.2317208830E-02
  0.1429536967E+00  0.1000000000E+01  0.0000000000E+00  0.3764059840E-02  0.5126662773E-21 -0.5527382425E-03  0.6272702736E+15 -0.3853062430E-02  0.2107230597E-21 -0.8464971937E-03
  0.4698893521E-01  0.1000000000E+01  0.0000000000E+00  0.6409830895E-02 -0.1014550117E-20  0.1243640215E-02  0.6272702736E+15 -0.5170169843E-03 -0.1334376253E-20  0.2019597091E-02
  0.0000000000E+00  0.1000000000E+01  0.0000000000E+00 -0.7607377268E-02  0.6249605417E-23  0.1831934237E-02  0.6272702736E+15 -0.8348761551E-02  0.6836457360E-23  0.2606361029E-02
  0.4000000000E+00  0.1000000000E+01  0.4698893521E-01  0.2132930099E+00  0.1396107586E-17 -0.8591553091E-01  0.6272702736E+15  0.2057191520E+00  0.1443892699E-17 -0.4237721633E-01
  0.3530110648E+00  0.1000000000E+01  0.4698893521E-01  0.5917305545E-01  0.1074264393E-17 -0.4512745583E-01  0.6272702736E+15  0.4657458858E-01  0.1159541749E-17 -0.6147616344E-03
  0.2570463033E+00  0.1000000000E+01  0.4698893521E-01  0.3392206192E-01  0.8809557245E-19 -0.4555136832E-01  0.6272702736E+15  0.2663508727E-01  0.1582728846E-18 -0.5038666788E-02
  0.1429536967E+00  0.1000000000E+01  0.4698893521E-01 -0.2022564753E-01 -0.4238652027E-19 -0.2114852591E-01  0.6272702736E+15 -0.2886310213E-01 -0.5282320101E-19  0.3426487089E-03
  0.4698893521E-01  0.1000000000E+01  0.4698893521E-01  0.1106842509E-01 -0.8183312901E-20 -0.2254363867E-01  0.6272702736E+15  0.1086704295E-03 -0.2456529435E-19 -0.1018052432E-01
  0.0000000000E+00  0.1000000000E+01  0.4698893521E-01 -0.1979061685E-01  0.8323345615E-21 -0.1979638563E-02  0.6272702736E+15 -0.2055109576E-01  0.7981487700E-21  0.4978507969E-02
  0.4000000000E+00  0.1000000000E+01  0.1429536967E+00  0.3756163729E+00  0.7055365555E-17 -0.1739965032E+00  0.6272702736E+15  0.3712347586E+00  0.6994268710E-17 -0.1394583457E+00
  0.3530110648E+00  0.1000000000E+01  0.1429536967E+00  0.1212756053E+00  0.3231097151E-17 -0.1968476594E+00  0.6272702736E+15  0.1100437193E+00  0.3029553590E-17 -0.1643077410E+00
  0.2570463033E+00  0.1000000000E+01  0.1429536967E+00  0.6423295977E-01  0.3398777628E-18 -0.8272291125E-01  0.6272702736E+15  0.7154042848E-01  0.3572863416E-18 -0.6018504981E-01
  0.1429536967E+00  0.1000000000E+01  0.1429536967E+00 -0.3543273252E-01 -0.4126799775E-19 -0.5515788553E-01  0.6272702736E+15 -0.3143779008E-01 -0.3590089045E-19 -0.4691264663E-01
  0.4698893521E-01  0.1000000000E+01  0.1429536967E+00  0.2361085510E-03  0.4765661534E-19  0.1204437822E-01  0.6272702736E+15 -0.1274285754E-01 -0.3127917822E-20  0.2288107748E-01
  0.0000000000E+00  0.1000000000E+01  0.1429536967E+00 -0.2389776012E-01 -0.5091178618E-21 -0.6050412727E-02  0.6272702736E+15 -0.2361601319E-01 -0.5795711260E-21  0.1657680025E-02
  0.4000000000E+00  0.1000000000E+01  0.2570463033E+00  0.3390003454E+00  0.1902751284E-18 -0.3116227222E+00  0.6272702736E+15  0.3376202244E+00  0.1874344853E-18 -0.2975966393E+00
  0.3530110648E+00  0.1000000000E+01  0.2570463033E+00  0.2194440325E+00 -0.1002425813E-17 -0.3360953771E+00  0.6272702736E+15  0.2157618364E+00 -0.8282426461E-18 -0.3239843435E+00
  0.2570463033E+00  0.1000000000E+01  0.2570463033E+00  0.1482584347E+00 -0.3126345541E-18 -0.1486849297E+00  0.6272702736E+15  0.1674781156E+00 -0.3142233101E-18 -0.1432951128E+00
  0.1429536967E+00  0.1000000000E+01  0.2570463033E+00  0.5289200375E-01  0.2052843796E-18 -0.1218954567E+00  0.6272702736E+15  0.5528457591E-01  0.2042489465E-18 -0.1194207617E+00
  0.4698893521E-01  0.1000000000E+01  0.2570463033E+00  0.2922796435E-01  0.3814114618E-18  0.1778004723E-01  0.6272702736E+15  0.5426036093E-02  0.4892907434E-18  0.2583085670E-01
  0.0000000000E+00  0.1000000000E+01  0.2570463033E+00 -0.1635071351E-01 -0.3702347438E-20 -0.4995282639E-02  0.6272702736E+15 -0.1628067567E-01 -0.3856621002E-20  0.9326220931E-03
  0.4000000000E+00  0.1000000000E+01  0.3530110648E+00  0.3305078667E+00 -0.2167551098E-18 -0.3842665194E+00  0.6272702736E+15  0.3327283572E+00 -0.2233910016E-18 -0.3514228057E+00
  0.3530110648E+00  0.1000000000E+01  0.3530110648E+00  0.2424488783E+00 -0.5581978930E-18 -0.3943939075E+00  0.6272702736E+15  0.2423996718E+00 -0.5475804468E-18 -0.3637030104E+00
  0.2570463033E+00  0.1000000000E+01  0.3530110648E+00  0.2033985323E+00 -0.9786806895E-18 -0.2348417134E+00  0.6272702736E+15  0.2271467875E+00 -0.1374164277E-17 -0.2077759828E+00
  0.1429536967E+00  0.1000000000E+01  0.3530110648E+00  0.9723220193E-01  0.1297204579E-18 -0.2207269383E+00  0.6272702736E+15  0.1023332353E+00 -0.4442402002E-19 -0.2008011122E+00
  0.4698893521E-01  0.1000000000E+01  0.3530110648E+00  0.4040002011E-01 -0.3467345390E-19 -0.4539621342E-01  0.6272702736E+15  0.1730943362E-01 -0.1421530506E-18 -0.3358916746E-01
  0.0000000000E+00  0.1000000000E+01  0.3530110648E+00 -0.1600026675E-01  0.4199932004E-20 -0.5726974522E-02  0.6272702736E+15 -0.1575475755E-01  0.4949480361E-20  0.4717586067E-03
  0.4000000000E+00  0.1000000000E+01  0.4000000000E+00  0.3017181341E+00  0.5863242405E-18 -0.4106934084E+00  0.6272702736E+15  0.3083757656E+00  0.5823554552E-18 -0.3783151145E+00
  0.3530110648E+00  0.1000000000E+01  0.4000000000E+00  0.2715229742E+00 -0.6701867706E-19 -0.4202963590E+00  0.6272702736E+15  0.2750020984E+00 -0.1232857508E-18 -0.3937418846E+00
  0.2570463033E+00  0.1000000000E+01  0.4000000000E+00  0.2178523145E+00 -0.2760567422E-17 -0.2738023129E+00  0.6272702736E+15  0.2437269799E+00 -0.2687855502E-17 -0.2556845528E+00
  0.1429536967E+00  0.1000000000E+01  0.4000000000E+00  0.1146920430E+00 -0.9631567458E-18 -0.2726231760E+00  0.6272702736E+15  0.1235105112E+00 -0.8084495026E-18 -0.2598011538E+00
  0.4698893521E-01  0.1000000000E+01  0.4000000000E+00  0.3666253619E-01 -0.6344099292E-18 -0.7433775619E-01  0.6272702736E+15  0.1687653448E-01 -0.6702064776E-18 -0.6669673372E-01
  0.0000000000E+00  0.1000000000E+01  0.4000000000E+00 -0.8538491286E-02  0.9845590712E-20 -0.6232881766E-02  0.6272702736E+15 -0.8364820932E-02  0.1035687334E-19 -0.1590786395E-02
ZONE I=6, J=6, K=1, F=POINT
  0.8000000000E+00  0.1000000000E+01  0.0000000000E+00  0.1824264641E-01 -0.4446576835E-19 -0.1094014997E-01  0.6272702736E+15  0.1686032573E-01 -0.4899062887E-19 -0.1109641545E-01
  0.7530110648E+00  0.1000000000E+01  0.0000000000E+00  0.1141874805E-02  0.1303324419E-18  0.5922144976E-02  0.6272702736E+15 -0.1351388096E-03  0.9907125440E-19  0.5749440337E-02
  0.6570463033E+00  0.1000000000E+01  0.0000000000E+00 -0.7462214556E-03  0.1429418484E-19  0.3489061388E-03  0.6272702736E+15 -0.2540040550E-02 -0.9925722996E-20  0.1645284236E-03
  0.5429536967E+00  0.1000000000E+01  0.0000000000E+00  0.1527626833E-02  0.4713341085E-19  0.6645738797E-02  0.6272702736E+15 -0.1276497221E-02 -0.2850754492E-19  0.6413270672E-02
  0.4469889352E+00  0.1000000000E+01  0.0000000000E+00 -0.3864632596E-03  0.1976998407E-19  0.5863669450E-03  0.6272702736E+15 -0.3983418815E-02 -0.9403759447E-19  0.3810431462E-03
  0.4000000000E+00  0.1000000000E+01  0.0000000000E+00  0.1815266669E-01  0.3724649268E-19  0.6834287916E-02  0.6272702736E+15  0.1403807172E-01  0.3689668811E-19  0.6296270904E-02
  0.8000000000E+00  0.1000000000E+01  0.4698893521E-01  0.3687804109E+00 -0.2784107661E-16 -0.2108851656E-01  0.6272702736E+15  0.3609805692E+00 -0.2774812373E-16  0.2577978652E-01
  0.7530110648E+00  0.1000000000E+01  0.4698893521E-01  0.5980161292E+00 -0.2929618373E-16 -0.9140969843E-01  0.6272702736E+15  0.5921845612E+00 -0.2902978434E-16 -0.4276611439E-01
  0.6570463033E+00  0.1000000000E+01  0.4698893521E-01  0.3415866647E+00 -0.6091820739E-17 -0.7148178580E-01  0.6272702736E+15  0.3354729780E+00 -0.6093952599E-17 -0.2139728610E-01
  0.5429536967E+00  0.1000000000E+01  0.4698893521E-01  0.3313717422E+00  0.5062963373E-17 -0.6298437638E-01  0.6272702736E+15  0.3251224723E+00  0.4988550748E-17 -0.1109050522E-01
  0.4469889352E+00  0.1000000000E+01  0.4698893521E-01  0.1520291034E+00  0.2852708847E-17 -0.4506189906E-01  0.6272702736E+15  0.1468661689E+00  0.2848195599E-17  0.1763747905E-02
  0.4000000000E+00  0.1000000000E+01  0.4698893521E-01  0.2612990194E+00  0.1121661215E-17 -0.8671074049E-01  0.6272702736E+15  0.2542399147E+00  0.1166607731E-17 -0.4316479504E-01
  0.8000000000E+00  0.1000000000E+01  0.1429536967E+00  0.6589175238E+00 -0.4913020090E-16 -0.3282165169E+00  0.6272702736E+15  0.6444350758E+00 -0.4955201504E-16 -0.2842782196E+00
  0.7530110648E+00  0.1000000000E+01  0.1429536967E+00  0.1038259040E+01 -0.3258804582E-16 -0.2229263041E+00  0.6272702736E+15  0.1033216610E+01 -0.3286184497E-16 -0.1791222139E+00
  0.6570463033E+00  0.1000000000E+01  0.1429536967E+00  0.6429964593E+00 -0.9593121970E-17 -0.2824291472E+00  0.6272702736E+15  0.6364688587E+00 -0.9286993980E-17 -0.2411843224E+00
  0.5429536967E+00  0.1000000000E+01  0.1429536967E+00  0.5916859534E+00  0.9219013293E-17 -0.1514067070E+00  0.6272702736E+15  0.5874594330E+00  0.9113835074E-17 -0.1113242024E+00
  0.4469889352E+00  0.1000000000E+01  0.1429536967E+00  0.2780199624E+00  0.7471751560E-17 -0.2163535809E+00  0.6272702736E+15  0.2804076493E+00  0.7286415466E-17 -0.1800490715E+00
  0.4000000000E+00  0.1000000000E+01  0.1429536967E+00  0.4324990337E+00  0.7866389374E-17 -0.1734448841E+00  0.6272702736E+15  0.4284375718E+00  0.7810396706E-17 -0.1388996709E+00
  0.8000000000E+00  0.1000000000E+01  0.2570463033E+00  0.8094203965E+00 -0.2313672853E-17 -0.5830635500E+00  0.6272702736E+15  0.7970772782E+00 -0.2366563793E-17 -0.5618344756E+00
  0.7530110648E+00  0.1000000000E+01  0.2570463033E+00  0.8437206487E+00 -0.3932088847E-17 -0.4137844328E+00  0.6272702736E+15  0.8428166047E+00 -0.3640345933E-17 -0.3932924953E+00
  0.6570463033E+00  0.1000000000E+01  0.2570463033E+00  0.6082708349E+00 -0.8574549513E-17 -0.4971908842E+00  0.6272702736E+15  0.6055454038E+00 -0.8479566462E-17 -0.4785390700E+00
  0.5429536967E+00  0.1000000000E+01  0.2570463033E+00  0.5007381453E+00 -0.5731252350E-18 -0.2912854416E+00  0.6272702736E+15  0.4988571936E+00 -0.6187896665E-18 -0.2753913593E+00
  0.4469889352E+00  0.1000000000E+01  0.2570463033E+00  0.3216658672E+00 -0.2513740184E-19 -0.3843996755E+00  0.6272702736E+15  0.3263931668E+00  0.1645434148E-18 -0.3695172562E+00
  0.4000000000E+00  0.1000000000E+01  0.2570463033E+00  0.3737200497E+00  0.2322591087E-18 -0.3109783954E+00  0.6272702736E+15  0.3725178721E+00  0.2290002008E-18 -0.2969645750E+00
  0.8000000000E+00  0.1000000000E+01  0.3530110648E+00  0.5139079240E+00  0.8162091744E-17 -0.7130004862E+00  0.6272702736E+15  0.5019315260E+00  0.8162013949E-17 -0.6808225115E+00
  0.7530110648E+00  0.1000000000E+01  0.3530110648E+00  0.6114618459E+00  0.1254383686E-16 -0.5962420407E+00  0.6272702736E+15  0.6089466892E+00  0.1234344111E-16 -0.5622992055E+00
  0.6570463033E+00  0.1000000000E+01  0.3530110648E+00  0.4509261791E+00 -0.4137558740E-17 -0.6063560024E+00  0.6272702736E+15  0.4484003341E+00 -0.4572945646E-17 -0.5681012246E+00
  0.5429536967E+00  0.1000000000E+01  0.3530110648E+00  0.4088244740E+00 -0.8101181356E-17 -0.3952023130E+00  0.6272702736E+15  0.4087385455E+00 -0.8392422346E-17 -0.3570868257E+00
  0.4469889352E+00  0.1000000000E+01  0.3530110648E+00  0.2653759982E+00 -0.6767750197E-18 -0.4434757206E+00  0.6272702736E+15  0.2723269626E+00 -0.9794515554E-18 -0.4080716298E+00
  0.4000000000E+00  0.1000000000E+01  0.3530110648E+00  0.3668584376E+00 -0.2507884001E-18 -0.3840610553E+00  0.6272702736E+15  0.3696544457E+00 -0.2543082659E-18 -0.3512001610E+00
  0.8000000000E+00  0.1000000000E+01  0.4000000000E+00  0.4615856685E+00 -0.5502148527E-17 -0.8119501686E+00  0.6272702736E+15  0.4485353488E+00 -0.5510560759E-17 -0.7810233673E+00
  0.7530110648E+00  0.1000000000E+01  0.4000000000E+00  0.4459375329E+00 -0.1491696870E-17 -0.6438210476E+00  0.6272702736E+15  0.4407254901E+00 -0.1576529840E-17 -0.6110859151E+00
  0.6570463033E+00  0.1000000000E+01  0.4000000000E+00  0.3665822180E+00 -0.3543585260E-17 -0.6451890940E+00  0.6272702736E+15  0.3626989109E+00 -0.3403195100E-17 -0.6083457694E+00
  0.5429536967E+00  0.1000000000E+01  0.4000000000E+00  0.3390430368E+00  0.3615108321E-18 -0.4653933489E+00  0.6272702736E+15  0.3399719622E+00  0.7538120977E-18 -0.4281901303E+00
  0.4469889352E+00  0.1000000000E+01  0.4000000000E+00  0.2937684250E+00  0.1286292357E-17 -0.4796135368E+00  0.6272702736E+15  0.3023570241E+00  0.1303334058E-17 -0.4457377370E+00
  0.4000000000E+00  0.1000000000E+01  0.4000000000E+00  0.3180649653E+00  0.6059359244E-18 -0.4100615858E+00  0.6272702736E+15  0.3240642381E+00  0.6023260824E-18 -0.3776920960E+00
ZONE I=6, J=6, K=1, F=POINT
  0.1200000000E+01  0.1000000000E+01  0.0000000000E+00 -0.3687734132E-01  0.1072947486E-18  0.3644717358E-01  0.6272702736E+15 -0.3612996097E-01  0.1092732516E-18  0.3646818040E-01
  0.1153011065E+01  0.1000000000E+01  0.0000000000E+00 -0.8078236827E-02 -0.2357822831E-18 -0.8985259807E-02  0.6272702736E+15 -0.7256421446E-02 -0.2140132557E-18 -0.9073153618E-02
  0.1057046303E+01  0.1000000000E+01  0.0000000000E+00 -0.1523051674E-03 -0.8224730976E-20  0.6353721710E-02  0.6272702736E+15  0.6373234806E-04 -0.1789456765E-20  0.6267006705E-02
  0.9429536967E+00  0.1000000000E+01  0.0000000000E+00 -0.3991128332E-02  0.5542065188E-19 -0.7696002792E-02  0.6272702736E+15 -0.4601617138E-02  0.5141155120E-19 -0.7806020041E-02
  0.8469889352E+00  0.1000000000E+01  0.0000000000E+00  0.2167059817E-02  0.2373398259E-19  0.5456098428E-02  0.6272702736E+15  0.1197620579E-02  0.2245839895E-19  0.5308795053E-02
  0.8000000000E+00  0.1000000000E+01  0.0000000000E+00 -0.3001176758E-01 -0.5460123127E-19 -0.1021453521E-01  0.6272702736E+15 -0.3111822269E-01 -0.5942723170E-19 -0.1037472454E-01
  0.1200000000E+01  0.1000000000E+01  0.4698893521E-01  0.1785029178E+01 -0.4420597431E-16 -0.1574928771E+00  0.6272702736E+15  0.1781099435E+01 -0.4400287911E-16 -0.1714739277E+00
  0.1153011065E+01  0.1000000000E+01  0.4698893521E-01  0.1109684532E+01 -0.2121496197E-16 -0.8904197993E-02  0.6272702736E+15  0.1103076911E+01 -0.2101174927E-16 -0.1655234862E-01
  0.1057046303E+01  0.1000000000E+01  0.4698893521E-01  0.1164876258E+01 -0.1901356695E-17 -0.5777020805E-01  0.6272702736E+15  0.1156748380E+01 -0.2007548314E-17 -0.4905372304E-01
  0.9429536967E+00  0.1000000000E+01  0.4698893521E-01  0.7038204837E+00 -0.1341994547E-16 -0.7166901699E-01  0.6272702736E+15  0.6949623823E+00 -0.1316079209E-16 -0.4531271652E-01
  0.8469889352E+00  0.1000000000E+01  0.4698893521E-01  0.7113107981E+00 -0.3267413872E-16 -0.9806877040E-01  0.6272702736E+15  0.7021879626E+00 -0.3231053544E-16 -0.5724870186E-01
  0.8000000000E+00  0.1000000000E+01  0.4698893521E-01  0.2997027972E+00 -0.2706392804E-16 -0.1890897170E-01  0.6272702736E+15  0.2925131302E+00 -0.2698413772E-16  0.2790404329E-01
  0.1200000000E+01  0.1000000000E+01  0.1429536967E+00  0.3343196749E+01 -0.5775156621E-16 -0.3076821525E+00  0.6272702736E+15  0.3333967593E+01 -0.5742412227E-16 -0.3015597113E+00
  0.1153011065E+01  0.1000000000E+01  0.1429536967E+00  0.2034265534E+01 -0.5482568059E-16 -0.5129653455E+00  0.6272702736E+15  0.2014045906E+01 -0.5618476057E-16 -0.5026109810E+00
  0.1057046303E+01  0.1000000000E+01  0.1429536967E+00  0.2084335182E+01 -0.2240189362E-16 -0.3052716550E+00  0.6272702736E+15  0.2062265102E+01 -0.2237998086E-16 -0.2843689703E+00
  0.9429536967E+00  0.1000000000E+01  0.1429536967E+00  0.1240800903E+01 -0.2435681233E-16 -0.5126576658E+00  0.6272702736E+15  0.1218993996E+01 -0.2434378091E-16 -0.4811490699E+00
  0.8469889352E+00  0.1000000000E+01  0.1429536967E+00  0.1240527413E+01 -0.4516404296E-16 -0.2874589767E+00  0.6272702736E+15  0.1218614955E+01 -0.4487992281E-16 -0.2466038615E+00
  0.8000000000E+00  0.1000000000E+01  0.1429536967E+00  0.5683422106E+00 -0.5151545770E-16 -0.3297859973E+00  0.6272702736E+15  0.5550684826E+00 -0.5196138169E-16 -0.2858620862E+00
  0.1200000000E+01  0.1000000000E+01  0.2570463033E+00  0.2184710591E+01 -0.2529747885E-16 -0.8528483351E+00  0.6272702736E+15  0.2171611468E+01 -0.2524605155E-16 -0.8322157099E+00
  0.1153011065E+01  0.1000000000E+01  0.2570463033E+00  0.1877168599E+01 -0.6472065961E-16 -0.1106744363E+01  0.6272702736E+15  0.1851918690E+01 -0.6146343944E-16 -0.1085751442E+01
  0.1057046303E+01  0.1000000000E+01  0.2570463033E+00  0.1588391595E+01 -0.3396176890E-16 -0.7243710437E+00  0.6272702736E+15  0.1562323923E+01 -0.3404020476E-16 -0.7013231647E+00
  0.9429536967E+00  0.1000000000E+01  0.2570463033E+00  0.1165742606E+01 -0.3166712311E-16 -0.9552888007E+00  0.6272702736E+15  0.1141261958E+01 -0.3029225084E-16 -0.9305815016E+00
  0.8469889352E+00  0.1000000000E+01  0.2570463033E+00  0.1036913019E+01 -0.2766138840E-17 -0.5492301016E+00  0.6272702736E+15  0.1014544636E+01 -0.3263050894E-17 -0.5265735842E+00
  0.8000000000E+00  0.1000000000E+01  0.2570463033E+00  0.7651675544E+00 -0.2552887259E-17 -0.5851827261E+00  0.6272702736E+15  0.7537051688E+00 -0.2583476001E-17 -0.5638420482E+00
  0.1200000000E+01  0.1000000000E+01  0.3530110648E+00  0.1819383090E+01 -0.4703337452E-17 -0.1434137946E+01  0.6272702736E+15  0.1802332162E+01 -0.4676295687E-17 -0.1422218638E+01
  0.1153011065E+01  0.1000000000E+01  0.3530110648E+00  0.1351075998E+01 -0.1926252391E-16 -0.1383562583E+01  0.6272702736E+15  0.1322328469E+01 -0.1884635456E-16 -0.1368934761E+01
  0.1057046303E+01  0.1000000000E+01  0.3530110648E+00  0.1149026289E+01 -0.1838147718E-16 -0.1061359676E+01  0.6272702736E+15  0.1117834270E+01 -0.1868168713E-16 -0.1040095392E+01
  0.9429536967E+00  0.1000000000E+01  0.3530110648E+00  0.7624852750E+00 -0.2009024347E-16 -0.1094131968E+01  0.6272702736E+15  0.7365988756E+00 -0.1944200019E-16 -0.1065740706E+01
  0.8469889352E+00  0.1000000000E+01  0.3530110648E+00  0.7506872276E+00  0.4336951875E-17 -0.7637967859E+00  0.6272702736E+15  0.7304375391E+00  0.3431297469E-17 -0.7328912937E+00
  0.8000000000E+00  0.1000000000E+01  0.3530110648E+00  0.4631515756E+00  0.8196261721E-17 -0.7131914690E+00  0.6272702736E+15  0.4515743351E+00  0.8212288897E-17 -0.6810887076E+00
  0.1200000000E+01  0.1000000000E+01  0.4000000000E+00  0.1390838894E+01 -0.9218361944E-17 -0.1488890219E+01  0.6272702736E+15  0.1371242367E+01 -0.9195604953E-17 -0.1467556315E+01
  0.1153011065E+01  0.1000000000E+01  0.4000000000E+00  0.1270679904E+01 -0.7749487253E-17 -0.1623157676E+01  0.6272702736E+15  0.1239237301E+01 -0.8294359041E-17 -0.1600429748E+01
  0.1057046303E+01  0.1000000000E+01  0.4000000000E+00  0.9186928750E+00 -0.1270037927E-16 -0.1200723579E+01  0.6272702736E+15  0.8851911769E+00 -0.1289918030E-16 -0.1176816316E+01
  0.9429536967E+00  0.1000000000E+01  0.4000000000E+00  0.6493483936E+00 -0.2310515744E-16 -0.1216683551E+01  0.6272702736E+15  0.6214990238E+00 -0.2228075683E-16 -0.1191540360E+01
  0.8469889352E+00  0.1000000000E+01  0.4000000000E+00  0.5382982888E+00 -0.1185409272E-16 -0.8270709502E+00  0.6272702736E+15  0.5164984748E+00 -0.1216835708E-16 -0.7978247824E+00
  0.8000000000E+00  0.1000000000E+01  0.4000000000E+00  0.4517009967E+00 -0.5493969913E-17 -0.8146876371E+00  0.6272702736E+15  0.4390409014E+00 -0.5497723191E-17 -0.7836843017E+00
ZONE I=6, J=6, K=1, F=POINT
  0.1600000000E+01  0.1000000000E+01  0.0000000000E+00  0.1300536936E+00 -0.8899866108E-18 -0.7357997786E-01  0.6272702736E+15  0.1312959988E+00 -0.9928408361E-18 -0.7314385104E-01
  0.1553011065E+01  0.1000000000E+01  0.0000000000E+00  0.6308327123E-02 -0.1323111214E-17  0.4525118587E-01  0.6272702736E+15  0.7990339966E-02 -0.1426878724E-17  0.4531453042E-01
  0.1457046303E+01  0.1000000000E+01  0.0000000000E+00 -0.1159364381E-01  0.3544353663E-19 -0.3026033567E-02  0.6272702736E+15 -0.1002108571E-01 -0.1629801606E-19 -0.2947874072E-02
  0.1342953697E+01  0.1000000000E+01  0.0000000000E+00  0.2018498180E-02  0.2912090767E-18  0.2996584791E-01  0.6272702736E+15  0.3070765307E-02  0.3491978218E-18  0.2996571843E-01
  0.1246988935E+01  0.1000000000E+01  0.0000000000E+00 -0.1097766105E-01  0.9141156647E-19 -0.7676850799E-02  0.6272702736E+15 -0.1015230327E-01  0.9903204230E-19 -0.7651562011E-02
  0.1200000000E+01  0.1000000000E+01  0.0000000000E+00  0.5797761117E-01  0.1128590549E-18  0.3608298721E-01  0.6272702736E+15  0.5876178207E-01  0.1151301597E-18  0.3610979674E-01
  0.1600000000E+01  0.1000000000E+01  0.4698893521E-01  0.2297925774E+01 -0.7450796120E-16  0.2662659065E+00  0.6272702736E+15  0.2294765415E+01 -0.7447582248E-16  0.2345665618E+00
  0.1553011065E+01  0.1000000000E+01  0.4698893521E-01  0.2896826791E+01 -0.2886836606E-16 -0.2512782006E+00  0.6272702736E+15  0.2894619430E+01 -0.2895748563E-16 -0.2821741691E+00
  0.1457046303E+01  0.1000000000E+01  0.4698893521E-01  0.1874258725E+01 -0.3889952598E-17 -0.6777345541E-01  0.6272702736E+15  0.1872288700E+01 -0.3855694923E-17 -0.9305551670E-01
  0.1342953697E+01  0.1000000000E+01  0.4698893521E-01  0.1920356315E+01  0.3086796753E-16 -0.3557070373E-01  0.6272702736E+15  0.1918449437E+01  0.3084533680E-16 -0.5581547261E-01
  0.1246988935E+01  0.1000000000E+01  0.4698893521E-01  0.1385576989E+01 -0.6058469388E-17  0.2030874595E-01  0.6272702736E+15  0.1382848724E+01 -0.6161788897E-17  0.2586690616E-02
  0.1200000000E+01  0.1000000000E+01  0.4698893521E-01  0.1896271919E+01 -0.4899419328E-16 -0.1632967364E+00  0.6272702736E+15  0.1890111883E+01 -0.4873999321E-16 -0.1769773266E+00
  0.1600000000E+01  0.1000000000E+01  0.1429536967E+00  0.3204007094E+01 -0.2531619802E-15 -0.1772623380E+01  0.6272702736E+15  0.3194695923E+01 -0.2532432895E-15 -0.1765051703E+01
  0.1553011065E+01  0.1000000000E+01  0.1429536967E+00  0.5129126530E+01 -0.1570827553E-15 -0.8575790376E+00  0.6272702736E+15  0.5127622227E+01 -0.1571185190E-15 -0.8509375734E+00
  0.1457046303E+01  0.1000000000E+01  0.1429536967E+00  0.3269808819E+01  0.3801045378E-16 -0.8614720317E+00  0.6272702736E+15  0.3266227370E+01  0.3748680672E-16 -0.8553489282E+00
  0.1342953697E+01  0.1000000000E+01  0.1429536967E+00  0.3575230873E+01  0.1085959919E-15 -0.5752765024E-01  0.6272702736E+15  0.3573313788E+01  0.1085093394E-15 -0.5071368371E-01
  0.1246988935E+01  0.1000000000E+01  0.1429536967E+00  0.2523121587E+01  0.2373634035E-16 -0.4640015848E+00  0.6272702736E+15  0.2519500572E+01  0.2422668601E-16 -0.4579580563E+00
  0.1200000000E+01  0.1000000000E+01  0.1429536967E+00  0.3515680616E+01 -0.6215134482E-16 -0.3029031948E+00  0.6272702736E+15  0.3499409131E+01 -0.6173173706E-16 -0.2971493296E+00
  0.1600000000E+01  0.1000000000E+01  0.2570463033E+00  0.5796277103E+01  0.2873527210E-16 -0.3399751569E+01  0.6272702736E+15  0.5800312788E+01  0.2874943366E-16 -0.3374607248E+01
  0.1553011065E+01  0.1000000000E+01  0.2570463033E+00  0.4949924658E+01  0.4419815260E-16 -0.2077429427E+01  0.6272702736E+15  0.4954922510E+01  0.4462366970E-16 -0.2049011478E+01
  0.1457046303E+01  0.1000000000E+01  0.2570463033E+00  0.4008696493E+01  0.1514888142E-15 -0.1904492854E+01  0.6272702736E+15  0.4009992093E+01  0.1513268922E-15 -0.1878489318E+01
  0.1342953697E+01  0.1000000000E+01  0.2570463033E+00  0.3053259366E+01  0.1272277364E-15 -0.5930334006E+00  0.6272702736E+15  0.3055157969E+01  0.1272084666E-15 -0.5707983182E+00
  0.1246988935E+01  0.1000000000E+01  0.2570463033E+00  0.2331464810E+01  0.3007257980E-16 -0.1118242520E+01  0.6272702736E+15  0.2330795326E+01  0.3022871213E-16 -0.1097428446E+01
  0.1200000000E+01  0.1000000000E+01  0.2570463033E+00  0.2234478934E+01 -0.2573455838E-16 -0.8460576077E+00  0.6272702736E+15  0.2221722844E+01 -0.2565920571E-16 -0.8265352866E+00
  0.1600000000E+01  0.1000000000E+01  0.3530110648E+00  0.3695482645E+01  0.5291369032E-16 -0.3719406574E+01  0.6272702736E+15  0.3692368676E+01  0.5301450718E-16 -0.3720630673E+01
  0.1553011065E+01  0.1000000000E+01  0.3530110648E+00  0.3962810181E+01  0.6886757367E-16 -0.3256624538E+01  0.6272702736E+15  0.3965581169E+01  0.6893236519E-16 -0.3256566451E+01
  0.1457046303E+01  0.1000000000E+01  0.3530110648E+00  0.3144083317E+01  0.1109632888E-15 -0.2566028803E+01  0.6272702736E+15  0.3146872944E+01  0.1108956652E-15 -0.2563164727E+01
  0.1342953697E+01  0.1000000000E+01  0.3530110648E+00  0.2559737956E+01  0.1036884447E-15 -0.1535605437E+01  0.6272702736E+15  0.2562352411E+01  0.1036919956E-15 -0.1531115633E+01
  0.1246988935E+01  0.1000000000E+01  0.3530110648E+00  0.1715111722E+01  0.2563843628E-16 -0.1518956772E+01  0.6272702736E+15  0.1711111825E+01  0.2580906228E-16 -0.1510519126E+01
  0.1200000000E+01  0.1000000000E+01  0.3530110648E+00  0.1899674415E+01 -0.4690442356E-17 -0.1434849448E+01  0.6272702736E+15  0.1881100212E+01 -0.4666828550E-17 -0.1422607938E+01
  0.1600000000E+01  0.1000000000E+01  0.4000000000E+00  0.3866867057E+01  0.2534235285E-16 -0.4493516232E+01  0.6272702736E+15  0.3862182826E+01  0.2537937190E-16 -0.4484292495E+01
  0.1553011065E+01  0.1000000000E+01  0.4000000000E+00  0.3253115090E+01  0.5653297499E-16 -0.3202467993E+01  0.6272702736E+15  0.3255512651E+01  0.5669088386E-16 -0.3193118286E+01
  0.1457046303E+01  0.1000000000E+01  0.4000000000E+00  0.2936347085E+01  0.6970569152E-16 -0.2881059504E+01  0.6272702736E+15  0.2937776813E+01  0.6987707259E-16 -0.2871076861E+01
  0.1342953697E+01  0.1000000000E+01  0.4000000000E+00  0.2177087723E+01  0.8958077924E-16 -0.1678864470E+01  0.6272702736E+15  0.2178259665E+01  0.8972877118E-16 -0.1664539591E+01
  0.1246988935E+01  0.1000000000E+01  0.4000000000E+00  0.1682051929E+01  0.1315505235E-16 -0.1822185257E+01  0.6272702736E+15  0.1674625235E+01  0.1325441723E-16 -0.1801924851E+01
  0.1200000000E+01  0.1000000000E+01  0.4000000000E+00  0.1373288526E+01 -0.8968795942E-17 -0.1480092841E+01  0.6272702736E+15  0.1353326199E+01 -0.8955408709E-17 -0.1459585674E+01
ZONE I=6, J=6, K=1, F=POINT
  0.2000000000E+01  0.1000000000E+01  0.0000000000E+00  0.2396219746E+01  0.5579092932E-19  0.2122869669E+02  0.6272702736E+15  0.2423862691E+01  0.8571841970E-19  0.2215011207E+02
  0.1953011065E+01  0.1000000000E+01  0.0000000000E+00  0.1290321437E+01 -0.3644730477E-16 -0.1382109201E+00  0.6272702736E+15  0.1296433748E+01 -0.3554689141E-16 -0.1523747959E+00
  0.1857046303E+01  0.1000000000E+01  0.0000000000E+00 -0.3106229461E+00 -0.1907647680E-16  0.1573392725E+00  0.6272702736E+15 -0.3099868737E+00 -0.1957792172E-16  0.1538369248E+00
  0.1742953697E+01  0.1000000000E+01  0.0000000000E+00  0.1296961228E+00  0.3546931779E-18 -0.3996908330E-01  0.6272702736E+15  0.1313206236E+00  0.3138586710E-18 -0.3934439640E-01
  0.1646988935E+01  0.1000000000E+01  0.0000000000E+00 -0.1304491866E+00  0.5683424945E-18  0.6013157609E-01  0.6272702736E+15 -0.1289278734E+00  0.5395262015E-18  0.5934313890E-01
  0.1600000000E+01  0.1000000000E+01  0.0000000000E+00  0.7738148627E-01 -0.9742330189E-18 -0.8509436381E-01  0.6272702736E+15  0.7817632123E-01 -0.1078906011E-17 -0.8328991352E-01
  0.2000000000E+01  0.1000000000E+01  0.4698893521E-01 -0.2570319744E-01  0.7993860872E-18  0.4848026974E+02  0.6272702736E+15 -0.6895139192E-01  0.6958739684E-18  0.4865688989E+02
  0.1953011065E+01  0.1000000000E+01  0.4698893521E-01  0.1099788121E+02  0.1634082928E-15  0.1522333027E+01  0.6272702736E+15  0.1098809511E+02  0.1622837893E-15  0.1538186756E+01
  0.1857046303E+01  0.1000000000E+01  0.4698893521E-01  0.1151466843E+02  0.3558562003E-15 -0.1965032683E+01  0.6272702736E+15  0.1152049084E+02  0.3561668605E-15 -0.1973597052E+01
  0.1742953697E+01  0.1000000000E+01  0.4698893521E-01  0.5201598967E+01  0.1855861370E-16 -0.6636298791E+00  0.6272702736E+15  0.5207048883E+01  0.1885256344E-16 -0.6917021979E+00
  0.1646988935E+01  0.1000000000E+01  0.4698893521E-01  0.3879558871E+01 -0.1073895717E-15 -0.6168999032E+00  0.6272702736E+15  0.3877010241E+01 -0.1074092761E-15 -0.6469429153E+00
  0.1600000000E+01  0.1000000000E+01  0.4698893521E-01  0.2113853664E+01 -0.7103917321E-16  0.2525169638E+00  0.6272702736E+15  0.2119489499E+01 -0.7080154611E-16  0.2156941774E+00
  0.2000000000E+01  0.1000000000E+01  0.1429536967E+00 -0.2856718596E+00  0.1816540202E-17  0.5049703247E+02  0.6272702736E+15 -0.2653287618E+00  0.1663141828E-17  0.5043679584E+02
  0.1953011065E+01  0.1000000000E+01  0.1429536967E+00  0.2529249473E+01 -0.4340386881E-15  0.1610061573E+02  0.6272702736E+15  0.2520549195E+01 -0.4341130482E-15  0.1613925410E+02
  0.1857046303E+01  0.1000000000E+01  0.1429536967E+00  0.1108662259E+02 -0.2636506731E-15 -0.4658205344E+01  0.6272702736E+15  0.1109865736E+02 -0.2642212056E-15 -0.4639330745E+01
  0.1742953697E+01  0.1000000000E+01  0.1429536967E+00  0.7056643621E+01  0.1266646566E-15 -0.4480580754E+01  0.6272702736E+15  0.7073176146E+01  0.1269881470E-15 -0.4475272837E+01
  0.1646988935E+01  0.1000000000E+01  0.1429536967E+00  0.6289602541E+01 -0.9634457698E-16 -0.2125739752E+01  0.6272702736E+15  0.6291604534E+01 -0.9619737420E-16 -0.2118295439E+01
  0.1600000000E+01  0.1000000000E+01  0.1429536967E+00  0.2828829310E+01 -0.2700754516E-15 -0.1767243153E+01  0.6272702736E+15  0.2847737143E+01 -0.2707456527E-15 -0.1766547227E+01
  0.2000000000E+01  0.1000000000E+01  0.2570463033E+00  0.1000629092E-01  0.8955333228E-18  0.4986426565E+02  0.6272702736E+15  0.9469051622E-02  0.8157074564E-18  0.4987224384E+02