TITLE = "Generated from ../MESH/Convergence_0000000000.hmesh and Convergence_0000005000.hsol"
VARIABLES = "x","y","z","veloT_x","veloT_y","veloT_z","slr_4","velo_x","velo_y","velo_z"
ZONE I=6, J=6, K=1, F=POINT
  0.4000000000E+00  0.1000000000E+01  0.0000000000E+00 -0.1231493554E-01  0.2776761316E-19  0.7329481353E-02  0.6548687064E+15 -0.1251917632E-01  0.2758240378E-19  0.7187749432E-02
  0.3530110648E+00  0.1000000000E+01  0.0000000000E+00 -0.1783851695E-02  0.9536487139E-20 -0.4567694463E-03  0.6548687064E+15 -0.2064204316E-02  0.9514229243E-20 -0.5008554459E-03
  0.2570463033E+00  0.1000000000E+01  0.0000000000E+00 -0.4026405582E-03  0.1517603026E-20  0.2297300510E-02  0.6548687064E+15 -0.8179177756E-03  0.1507952293E-20  0.2234943038E-02
  0.1429536967E+00  0.1000000000E+01  0.0000000000E+00 -0.1699394313E-02  0.2974613598E-21 -0.1056295253E-02  0.6548687064E+15 -0.2400668464E-02  0.3121083073E-21 -0.1111348227E-02
  0.4698893521E-01  0.1000000000E+01  0.0000000000E+00  0.1080857813E-02 -0.2216255011E-20  0.1992630496E-02  0.6548687064E+15  0.4511683991E-03 -0.2495417094E-20  0.2178218441E-02
  0.0000000000E+00  0.1000000000E+01  0.0000000000E+00 -0.7554592810E-02  0.1330462265E-22  0.2138033205E-02  0.6548687064E+15 -0.7698237063E-02  0.1566288057E-22  0.2242058092E-02
  0.4000000000E+00  0.1000000000E+01  0.4698893521E-01  0.2669280394E+00  0.3089517925E-17 -0.3901623507E-01  0.6548687064E+15  0.2657621966E+00  0.3096357695E-17 -0.3767002310E-01
  0.3530110648E+00  0.1000000000E+01  0.4698893521E-01  0.1277204415E+00  0.2778307759E-17 -0.2555746203E-02  0.6548687064E+15  0.1246001361E+00  0.2809651262E-17 -0.8722276717E-03
  0.2570463033E+00  0.1000000000E+01  0.4698893521E-01  0.1000041180E+00  0.1141839547E-17 -0.1604077239E-01  0.6548687064E+15  0.9688826834E-01  0.1154046934E-17 -0.1056767612E-01
  0.1429536967E+00  0.1000000000E+01  0.4698893521E-01  0.5036096645E-02  0.3240677149E-18 -0.1036688365E-01  0.6548687064E+15  0.1585635122E-02  0.3181414791E-18 -0.4873790070E-02
  0.4698893521E-01  0.1000000000E+01  0.4698893521E-01 -0.9844796494E-03  0.7446300439E-19 -0.9037699248E-02  0.6548687064E+15 -0.4311799584E-02  0.6927231171E-19 -0.5161927426E-02
  0.0000000000E+00  0.1000000000E+01  0.4698893521E-01 -0.1814958871E-01  0.9249929031E-21  0.3079192607E-02  0.6548687064E+15 -0.1831373189E-01  0.9504534512E-21  0.3765133111E-02
  0.4000000000E+00  0.1000000000E+01  0.1429536967E+00  0.6015199642E+00  0.9915576797E-17 -0.1292957226E+00  0.6548687064E+15  0.6004815056E+00  0.9903440057E-17 -0.1290891011E+00
  0.3530110648E+00  0.1000000000E+01  0.1429536967E+00  0.3450905688E+00  0.6272335787E-17 -0.1665644153E+00  0.6548687064E+15  0.3368306495E+00  0.6263509610E-17 -0.1641604646E+00
  0.2570463033E+00  0.1000000000E+01  0.1429536967E+00  0.2411231980E+00  0.2618921296E-17 -0.1073570829E+00  0.6548687064E+15  0.2343229580E+00  0.2622304698E-17 -0.9932722761E-01
  0.1429536967E+00  0.1000000000E+01  0.1429536967E+00  0.3781452222E-01  0.1017505959E-17 -0.1159861579E+00  0.6548687064E+15  0.3690254921E-01  0.1022706555E-17 -0.1074934658E+00
  0.4698893521E-01  0.1000000000E+01  0.1429536967E+00 -0.5434572710E-02  0.2640925276E-18 -0.9869088625E-02  0.6548687064E+15 -0.6390641888E-02  0.2408997847E-18 -0.5003455653E-02
  0.0000000000E+00  0.1000000000E+01  0.1429536967E+00 -0.2130918293E-01  0.2321897854E-22 -0.4954767233E-03  0.6548687064E+15 -0.2129317042E-01  0.2940675792E-21  0.3474023562E-03
  0.4000000000E+00  0.1000000000E+01  0.2570463033E+00  0.7086768970E+00  0.4185922937E-17 -0.4232505760E+00  0.6548687064E+15  0.7063691631E+00  0.4179722275E-17 -0.4166191463E+00
  0.3530110648E+00  0.1000000000E+01  0.2570463033E+00  0.5295256075E+00  0.2870187473E-17 -0.4597842650E+00  0.6548687064E+15  0.5171809611E+00  0.2961781738E-17 -0.4534414124E+00
  0.2570463033E+00  0.1000000000E+01  0.2570463033E+00  0.3225307155E+00  0.2380531972E-17 -0.3184869618E+00  0.6548687064E+15  0.3133700782E+00  0.2378934025E-17 -0.3125846526E+00
  0.1429536967E+00  0.1000000000E+01  0.2570463033E+00  0.9102049324E-01  0.1721996222E-17 -0.2875868718E+00  0.6548687064E+15  0.9265909148E-01  0.1720847377E-17 -0.2826852128E+00
  0.4698893521E-01  0.1000000000E+01  0.2570463033E+00  0.1028047385E-01  0.1106436648E-17 -0.5095237965E-01  0.6548687064E+15  0.1225610828E-01  0.1151979778E-17 -0.4742442858E-01
  0.0000000000E+00  0.1000000000E+01  0.2570463033E+00 -0.1421753916E-01 -0.4413367810E-20 -0.6003456793E-03  0.6548687064E+15 -0.1420659361E-01 -0.4729541045E-20  0.1499541477E-03
  0.4000000000E+00  0.1000000000E+01  0.3530110648E+00  0.7567999309E+00  0.4758649757E-17 -0.7230799535E+00  0.6548687064E+15  0.7587344217E+00  0.4758810474E-17 -0.7112185929E+00
  0.3530110648E+00  0.1000000000E+01  0.3530110648E+00  0.5583512158E+00  0.4195030817E-17 -0.7205319897E+00  0.6548687064E+15  0.5501343210E+00  0.4201290642E-17 -0.7118808720E+00
  0.2570463033E+00  0.1000000000E+01  0.3530110648E+00  0.3327813806E+00  0.2561125291E-17 -0.5420698465E+00  0.6548687064E+15  0.3257925701E+00  0.2505059555E-17 -0.5382492624E+00
  0.1429536967E+00  0.1000000000E+01  0.3530110648E+00  0.9314981437E-01  0.2251649021E-17 -0.4333949904E+00  0.6548687064E+15  0.9512837980E-01  0.2226197039E-17 -0.4303906547E+00
  0.4698893521E-01  0.1000000000E+01  0.3530110648E+00  0.1300135450E-01  0.6846427417E-18 -0.1145645078E+00  0.6548687064E+15  0.1501996986E-01  0.6524071531E-18 -0.1109291040E+00
  0.0000000000E+00  0.1000000000E+01  0.3530110648E+00 -0.1432243035E-01  0.4762223108E-20 -0.6882983272E-03  0.6548687064E+15 -0.1431425297E-01  0.4838019325E-20  0.1283815968E-03
  0.4000000000E+00  0.1000000000E+01  0.4000000000E+00  0.7432581653E+00  0.6862855429E-17 -0.8727556256E+00  0.6548687064E+15  0.7472201557E+00  0.6856670516E-17 -0.8663035566E+00
  0.3530110648E+00  0.1000000000E+01  0.4000000000E+00  0.5896469715E+00  0.6015434082E-17 -0.8589451613E+00  0.6548687064E+15  0.5842789756E+00  0.6022422967E-17 -0.8543893738E+00
  0.2570463033E+00  0.1000000000E+01  0.4000000000E+00  0.3326646206E+00  0.2454253212E-17 -0.6567301976E+00  0.6548687064E+15  0.3265377401E+00  0.2446421382E-17 -0.6546958609E+00
  0.1429536967E+00  0.1000000000E+01  0.4000000000E+00  0.1012881698E+00  0.2348444978E-17 -0.5118016953E+00  0.6548687064E+15  0.1026904795E+00  0.2396479469E-17 -0.5075808223E+00
  0.4698893521E-01  0.1000000000E+01  0.4000000000E+00  0.9283183678E-02  0.6656444436E-18 -0.1454631952E+00  0.6548687064E+15  0.1160643068E-01  0.6516496220E-18 -0.1417582051E+00
  0.0000000000E+00  0.1000000000E+01  0.4000000000E+00 -0.6720926050E-02  0.8334892943E-20 -0.2310480823E-02  0.6548687064E+15 -0.6858028530E-02  0.8717350747E-20 -0.1489388551E-02
ZONE I=6, J=6, K=1, F=POINT
  0.8000000000E+00  0.1000000000E+01  0.0000000000E+00  0.1694068270E-01 -0.8580457390E-19 -0.1160411532E-01  0.6548687064E+15  0.1798054823E-01 -0.8794324930E-19 -0.1151749776E-01
  0.7530110648E+00  0.1000000000E+01  0.0000000000E+00  0.1161789831E-02  0.6064157721E-19  0.6059569254E-02  0.6548687064E+15  0.2020346274E-02  0.8037754216E-19  0.6011882657E-02
  0.6570463033E+00  0.1000000000E+01  0.0000000000E+00 -0.1340969182E-02  0.1121926660E-19  0.3314939199E-03  0.6548687064E+15 -0.6854027711E-03  0.2055660303E-19  0.2272229643E-03
  0.5429536967E+00  0.1000000000E+01  0.0000000000E+00  0.1127116095E-03  0.1026301295E-19  0.6936345668E-02  0.6548687064E+15  0.3632085111E-03  0.1647359880E-19  0.6800325104E-02
  0.4469889352E+00  0.1000000000E+01  0.0000000000E+00 -0.2393347804E-02 -0.4996755982E-19  0.6092518945E-03  0.6548687064E+15 -0.2516881398E-02 -0.5385956356E-19  0.4743613502E-03
  0.4000000000E+00  0.1000000000E+01  0.0000000000E+00  0.1440952595E-01  0.3141569261E-19  0.7005625175E-02  0.6548687064E+15  0.1430802952E-01  0.3126883633E-19  0.6872124389E-02
  0.8000000000E+00  0.1000000000E+01  0.4698893521E-01  0.3395819368E+00 -0.2342719554E-16  0.4304968668E-02  0.6548687064E+15  0.3407124214E+00 -0.2343474107E-16  0.1240576953E-01
  0.7530110648E+00  0.1000000000E+01  0.4698893521E-01  0.5318776194E+00 -0.2277270259E-16 -0.5455302279E-01  0.6548687064E+15  0.5320513860E+00 -0.2279176438E-16 -0.4583082945E-01
  0.6570463033E+00  0.1000000000E+01  0.4698893521E-01  0.3086599092E+00 -0.4491549661E-17 -0.2401030476E-01  0.6548687064E+15  0.3085759437E+00 -0.4477782255E-17 -0.1361026638E-01
  0.5429536967E+00  0.1000000000E+01  0.4698893521E-01  0.3345230193E+00  0.4331173650E-17 -0.1126134875E-01  0.6548687064E+15  0.3351870481E+00  0.4348300375E-17 -0.2841691730E-02
  0.4469889352E+00  0.1000000000E+01  0.4698893521E-01  0.2041606974E+00  0.4033693345E-17  0.2428555324E-02  0.6548687064E+15  0.2040422120E+00  0.4032440045E-17  0.5038977473E-02
  0.4000000000E+00  0.1000000000E+01  0.4698893521E-01  0.3088859216E+00  0.2848970832E-17 -0.3977572477E-01  0.6548687064E+15  0.3074993557E+00  0.2856921037E-17 -0.3842387449E-01
  0.8000000000E+00  0.1000000000E+01  0.1429536967E+00  0.1109218572E+01 -0.5338664246E-16 -0.3871782680E+00  0.6548687064E+15  0.1110305062E+01 -0.5334134829E-16 -0.3701194911E+00
  0.7530110648E+00  0.1000000000E+01  0.1429536967E+00  0.1394589564E+01 -0.3338363378E-16 -0.2417177925E+00  0.6548687064E+15  0.1396108233E+01 -0.3349941171E-16 -0.2263082734E+00
  0.6570463033E+00  0.1000000000E+01  0.1429536967E+00  0.9359999860E+00 -0.3222915224E-17 -0.2342226180E+00  0.6548687064E+15  0.9373144489E+00 -0.3267950201E-17 -0.2229835005E+00
  0.5429536967E+00  0.1000000000E+01  0.1429536967E+00  0.8445005373E+00  0.9521202993E-17 -0.8260439534E-01  0.6548687064E+15  0.8505494853E+00  0.9699680304E-17 -0.7566955748E-01
  0.4469889352E+00  0.1000000000E+01  0.1429536967E+00  0.5308587175E+00  0.9930322964E-17 -0.1558301831E+00  0.6548687064E+15  0.5365195096E+00  0.9880460595E-17 -0.1542017082E+00
  0.4000000000E+00  0.1000000000E+01  0.1429536967E+00  0.6527175412E+00  0.1061936598E-16 -0.1287426814E+00  0.6548687064E+15  0.6509296538E+00  0.1059945910E-16 -0.1285373680E+00
  0.8000000000E+00  0.1000000000E+01  0.2570463033E+00  0.2184611438E+01 -0.1260837331E-16 -0.9717560841E+00  0.6548687064E+15  0.2187226304E+01 -0.1260973197E-16 -0.9677736783E+00
  0.7530110648E+00  0.1000000000E+01  0.2570463033E+00  0.2039277131E+01 -0.9181251008E-17 -0.7177156531E+00  0.6548687064E+15  0.2044733982E+01 -0.9134067544E-17 -0.7129143226E+00
  0.6570463033E+00  0.1000000000E+01  0.2570463033E+00  0.1534599756E+01 -0.2943820451E-17 -0.6519956401E+00  0.6548687064E+15  0.1538533532E+01 -0.3048579898E-17 -0.6455410750E+00
  0.5429536967E+00  0.1000000000E+01  0.2570463033E+00  0.1148535857E+01  0.2982600443E-17 -0.3862973096E+00  0.6548687064E+15  0.1156849765E+01  0.3121901067E-17 -0.3779579521E+00
  0.4469889352E+00  0.1000000000E+01  0.2570463033E+00  0.7900551678E+00  0.3782554226E-17 -0.4778411901E+00  0.6548687064E+15  0.7993281903E+00  0.3878800687E-17 -0.4700808502E+00
  0.4000000000E+00  0.1000000000E+01  0.2570463033E+00  0.7395834659E+00  0.4210413986E-17 -0.4225950932E+00  0.6548687064E+15  0.7380258041E+00  0.4204647567E-17 -0.4160150494E+00
  0.8000000000E+00  0.1000000000E+01  0.3530110648E+00  0.2464228154E+01  0.2382936122E-17 -0.1489456980E+01  0.6548687064E+15  0.2462851873E+01  0.2399370600E-17 -0.1495001995E+01
  0.7530110648E+00  0.1000000000E+01  0.3530110648E+00  0.2339520992E+01  0.7520180618E-17 -0.1266297419E+01  0.6548687064E+15  0.2337733832E+01  0.7397146884E-17 -0.1267521757E+01
  0.6570463033E+00  0.1000000000E+01  0.3530110648E+00  0.1777290893E+01  0.3500479362E-18 -0.1081004665E+01  0.6548687064E+15  0.1774094922E+01  0.3049253821E-18 -0.1069610757E+01
  0.5429536967E+00  0.1000000000E+01  0.3530110648E+00  0.1294001249E+01  0.8568436211E-18 -0.7635010698E+00  0.6548687064E+15  0.1301343686E+01  0.2460954090E-18 -0.7451964288E+00
  0.4469889352E+00  0.1000000000E+01  0.3530110648E+00  0.8373167256E+00  0.4698393322E-17 -0.7802080871E+00  0.6548687064E+15  0.8499260665E+00  0.4599178683E-17 -0.7656894364E+00
  0.4000000000E+00  0.1000000000E+01  0.3530110648E+00  0.7899882249E+00  0.4739608214E-17 -0.7228783386E+00  0.6548687064E+15  0.7919440622E+00  0.4738107126E-17 -0.7110074405E+00
  0.8000000000E+00  0.1000000000E+01  0.4000000000E+00  0.2580949612E+01 -0.3257152992E-17 -0.1801754181E+01  0.6548687064E+15  0.2577759605E+01 -0.3257672836E-17 -0.1797529604E+01
  0.7530110648E+00  0.1000000000E+01  0.4000000000E+00  0.2328628188E+01 -0.4208878116E-19 -0.1514355634E+01  0.6548687064E+15  0.2321909729E+01 -0.3462405483E-19 -0.1507553719E+01
  0.6570463033E+00  0.1000000000E+01  0.4000000000E+00  0.1810283932E+01  0.1032478364E-17 -0.1312038658E+01  0.6548687064E+15  0.1801965518E+01  0.1022910751E-17 -0.1295600169E+01
  0.5429536967E+00  0.1000000000E+01  0.4000000000E+00  0.1292582538E+01  0.6493018722E-17 -0.9932150180E+00  0.6548687064E+15  0.1300933262E+01  0.6966668709E-17 -0.9744453463E+00
  0.4469889352E+00  0.1000000000E+01  0.4000000000E+00  0.8978092724E+00  0.7014537410E-17 -0.9556140118E+00  0.6548687064E+15  0.9143497035E+00  0.7264005352E-17 -0.9449734499E+00
  0.4000000000E+00  0.1000000000E+01  0.4000000000E+00  0.7556458609E+00  0.6885598249E-17 -0.8720179919E+00  0.6548687064E+15  0.7596621057E+00  0.6879826388E-17 -0.8655585848E+00
ZONE I=6, J=6, K=1, F=POINT
  0.1200000000E+01  0.1000000000E+01  0.0000000000E+00 -0.3392810920E-01  0.5545980965E-19  0.3710740029E-01  0.6548687064E+15 -0.3192311790E-01  0.5734623476E-19  0.3649443418E-01
  0.1153011065E+01  0.1000000000E+01  0.0000000000E+00 -0.6765614540E-02 -0.3062282649E-18 -0.9547025985E-02  0.6548687064E+15 -0.4930786794E-02 -0.2249199549E-18 -0.9678820056E-02
  0.1057046303E+01  0.1000000000E+01  0.0000000000E+00  0.8933374557E-03 -0.1260783615E-19  0.5989377169E-02  0.6548687064E+15  0.2426607119E-02  0.2598142497E-19  0.5976011910E-02
  0.9429536967E+00  0.1000000000E+01  0.0000000000E+00 -0.3051407002E-02  0.2206925696E-20 -0.8260732525E-02  0.6548687064E+15 -0.1868678048E-02  0.2934948217E-20 -0.8283757109E-02
  0.8469889352E+00  0.1000000000E+01  0.0000000000E+00  0.2612910614E-02 -0.2181435491E-19  0.5439160325E-02  0.6548687064E+15  0.3581670719E-02 -0.2254970890E-19  0.5458123857E-02
  0.8000000000E+00  0.1000000000E+01  0.0000000000E+00 -0.2821605633E-01 -0.9552794076E-19 -0.1107466526E-01  0.6548687064E+15 -0.2740731946E-01 -0.9781087790E-19 -0.1100400228E-01
  0.1200000000E+01  0.1000000000E+01  0.4698893521E-01  0.2223685823E+01 -0.4175118007E-16 -0.2184062866E+00  0.6548687064E+15  0.2226682748E+01 -0.4186649105E-16 -0.1983032967E+00
  0.1153011065E+01  0.1000000000E+01  0.4698893521E-01  0.1530642057E+01 -0.2597416334E-16 -0.7121959540E-01  0.6548687064E+15  0.1534812089E+01 -0.2612516906E-16 -0.5302576516E-01
  0.1057046303E+01  0.1000000000E+01  0.4698893521E-01  0.1387610742E+01 -0.1234614016E-16 -0.1024008634E+00  0.6548687064E+15  0.1390543957E+01 -0.1229060489E-16 -0.8915921569E-01
  0.9429536967E+00  0.1000000000E+01  0.4698893521E-01  0.7746656613E+00 -0.1450577201E-16 -0.8716549901E-01  0.6548687064E+15  0.7770196123E+00 -0.1455846696E-16 -0.7567013310E-01
  0.8469889352E+00  0.1000000000E+01  0.4698893521E-01  0.6697021664E+00 -0.2739072481E-16 -0.8266722501E-01  0.6548687064E+15  0.6721066907E+00 -0.2750425902E-16 -0.7367138163E-01
  0.8000000000E+00  0.1000000000E+01  0.4698893521E-01  0.2787353949E+00 -0.2272962517E-16  0.6353725573E-02  0.6548687064E+15  0.2798592010E+00 -0.2274165869E-16  0.1440744602E-01
  0.1200000000E+01  0.1000000000E+01  0.1429536967E+00  0.5172839192E+01 -0.5809349991E-16 -0.6506620539E+00  0.6548687064E+15  0.5179218065E+01 -0.5813056010E-16 -0.6368390306E+00
  0.1153011065E+01  0.1000000000E+01  0.1429536967E+00  0.3710684203E+01 -0.6789432877E-16 -0.8585810627E+00  0.6548687064E+15  0.3718089464E+01 -0.6762511544E-16 -0.8432414374E+00
  0.1057046303E+01  0.1000000000E+01  0.1429536967E+00  0.3310266030E+01 -0.3836342894E-16 -0.6435643380E+00  0.6548687064E+15  0.3315203032E+01 -0.3836984151E-16 -0.6269389111E+00
  0.9429536967E+00  0.1000000000E+01  0.1429536967E+00  0.2038390492E+01 -0.3392321027E-16 -0.7513309718E+00  0.6548687064E+15  0.2041726483E+01 -0.3390919857E-16 -0.7349612295E+00
  0.8469889352E+00  0.1000000000E+01  0.1429536967E+00  0.1745314714E+01 -0.4972729204E-16 -0.4058349316E+00  0.6548687064E+15  0.1749359194E+01 -0.4990196600E-16 -0.3888864340E+00
  0.8000000000E+00  0.1000000000E+01  0.1429536967E+00  0.1025724664E+01 -0.5559943076E-16 -0.3887904690E+00  0.6548687064E+15  0.1028118110E+01 -0.5557715575E-16 -0.3717095096E+00
  0.1200000000E+01  0.1000000000E+01  0.2570463033E+00  0.5486824971E+01 -0.5979253613E-17 -0.1772712304E+01  0.6548687064E+15  0.5486102396E+01 -0.5920642975E-17 -0.1777831125E+01
  0.1153011065E+01  0.1000000000E+01  0.2570463033E+00  0.4945762782E+01 -0.3816953495E-16 -0.2021840957E+01  0.6548687064E+15  0.4944646442E+01 -0.3801529134E-16 -0.2025119726E+01
  0.1057046303E+01  0.1000000000E+01  0.2570463033E+00  0.4095766677E+01 -0.3129163686E-16 -0.1627877272E+01  0.6548687064E+15  0.4099298931E+01 -0.3129234492E-16 -0.1625451109E+01
  0.9429536967E+00  0.1000000000E+01  0.2570463033E+00  0.3114245463E+01 -0.3014034195E-16 -0.1674878223E+01  0.6548687064E+15  0.3117691481E+01 -0.3030193970E-16 -0.1673974842E+01
  0.8469889352E+00  0.1000000000E+01  0.2570463033E+00  0.2556599275E+01 -0.1410535389E-16 -0.1046167388E+01  0.6548687064E+15  0.2557086370E+01 -0.1407016300E-16 -0.1043693065E+01
  0.8000000000E+00  0.1000000000E+01  0.2570463033E+00  0.2147103532E+01 -0.1276818253E-16 -0.9743102968E+00  0.6548687064E+15  0.2149991037E+01 -0.1276104478E-16 -0.9699506505E+00
  0.1200000000E+01  0.1000000000E+01  0.3530110648E+00  0.5799521892E+01  0.3341531769E-16 -0.2939296212E+01  0.6548687064E+15  0.5800260462E+01  0.3344400032E-16 -0.2936756833E+01
  0.1153011065E+01  0.1000000000E+01  0.3530110648E+00  0.5069544685E+01  0.1384385401E-16 -0.2866110472E+01  0.6548687064E+15  0.5065117887E+01  0.1392247690E-16 -0.2864346583E+01
  0.1057046303E+01  0.1000000000E+01  0.3530110648E+00  0.4332326736E+01 -0.6936913025E-17 -0.2491130018E+01  0.6548687064E+15  0.4336214439E+01 -0.6940761404E-17 -0.2491130502E+01
  0.9429536967E+00  0.1000000000E+01  0.3530110648E+00  0.3379599454E+01 -0.1416570355E-16 -0.2283336070E+01  0.6548687064E+15  0.3386104432E+01 -0.1432822574E-16 -0.2287310135E+01
  0.8469889352E+00  0.1000000000E+01  0.3530110648E+00  0.2902107754E+01 -0.6238133456E-19 -0.1676589689E+01  0.6548687064E+15  0.2900327331E+01 -0.7295473925E-19 -0.1683473233E+01
  0.8000000000E+00  0.1000000000E+01  0.3530110648E+00  0.2416945243E+01  0.2437993198E-17 -0.1489746682E+01  0.6548687064E+15  0.2417119594E+01  0.2460390519E-17 -0.1495314762E+01
  0.1200000000E+01  0.1000000000E+01  0.4000000000E+00  0.5521977914E+01  0.3940828420E-16 -0.3272652585E+01  0.6548687064E+15  0.5521966947E+01  0.3941917459E-16 -0.3257577420E+01
  0.1153011065E+01  0.1000000000E+01  0.4000000000E+00  0.5154371995E+01  0.3048162257E-16 -0.3385830489E+01  0.6548687064E+15  0.5151191885E+01  0.3038573733E-16 -0.3371668580E+01
  0.1057046303E+01  0.1000000000E+01  0.4000000000E+00  0.4281944405E+01  0.4474575271E-17 -0.2887321343E+01  0.6548687064E+15  0.4287406703E+01  0.4560950735E-17 -0.2877945101E+01
  0.9429536967E+00  0.1000000000E+01  0.4000000000E+00  0.3455559846E+01 -0.1306085218E-16 -0.2650530616E+01  0.6548687064E+15  0.3463539836E+01 -0.1301581973E-16 -0.2643157599E+01
  0.8469889352E+00  0.1000000000E+01  0.4000000000E+00  0.2868772558E+01 -0.7615607047E-17 -0.1957138112E+01  0.6548687064E+15  0.2867946671E+01 -0.7697942119E-17 -0.1953327954E+01
  0.8000000000E+00  0.1000000000E+01  0.4000000000E+00  0.2576767772E+01 -0.3239195679E-17 -0.1805105847E+01  0.6548687064E+15  0.2573344740E+01 -0.3238910669E-17 -0.1800471515E+01
ZONE I=6, J=6, K=1, F=POINT
  0.1600000000E+01  0.1000000000E+01  0.0000000000E+00  0.1280969027E+00 -0.9249105481E-18 -0.7172716053E-01  0.6548687064E+15  0.1294664214E+00 -0.1041726204E-17 -0.7158951189E-01
  0.1553011065E+01  0.1000000000E+01  0.0000000000E+00  0.7866839027E-02 -0.1193412867E-17  0.4522862072E-01  0.6548687064E+15  0.9775798556E-02 -0.1308016891E-17  0.4509145797E-01
  0.1457046303E+01  0.1000000000E+01  0.0000000000E+00 -0.9916243137E-02 -0.2956200735E-19 -0.3246803423E-02  0.6548687064E+15 -0.7983814649E-02 -0.9678143218E-19 -0.3211181428E-02
  0.1342953697E+01  0.1000000000E+01  0.0000000000E+00  0.2580023829E-02  0.2512737062E-18  0.2980090843E-01  0.6548687064E+15  0.4674340032E-02  0.3688738748E-18  0.2963254794E-01
  0.1246988935E+01  0.1000000000E+01  0.0000000000E+00 -0.1019396726E-01  0.1177318587E-18 -0.8124976100E-02  0.6548687064E+15 -0.8181595889E-02  0.1346994974E-18 -0.8222782278E-02
  0.1200000000E+01  0.1000000000E+01  0.0000000000E+00  0.5554310123E-01  0.5882838268E-19  0.3710830865E-01  0.6548687064E+15  0.5736447146E-01  0.6132332019E-19  0.3649491332E-01
  0.1600000000E+01  0.1000000000E+01  0.4698893521E-01  0.2994910395E+01 -0.8770037972E-16  0.2379231396E+00  0.6548687064E+15  0.2993897683E+01 -0.8768582372E-16  0.2299327058E+00
  0.1553011065E+01  0.1000000000E+01  0.4698893521E-01  0.3495334762E+01 -0.4370963660E-16 -0.2690780529E+00  0.6548687064E+15  0.3495621070E+01 -0.4369040691E-16 -0.2749814876E+00
  0.1457046303E+01  0.1000000000E+01  0.4698893521E-01  0.2533489821E+01 -0.4117002683E-17 -0.8851851172E-01  0.6548687064E+15  0.2533966683E+01 -0.4127281847E-17 -0.8755289763E-01
  0.1342953697E+01  0.1000000000E+01  0.4698893521E-01  0.2535778286E+01  0.2856934595E-16 -0.6948682497E-01  0.6548687064E+15  0.2535219984E+01  0.2856927359E-16 -0.5948267466E-01
  0.1246988935E+01  0.1000000000E+01  0.4698893521E-01  0.1957576447E+01 -0.7352095324E-17 -0.4329339202E-01  0.6548687064E+15  0.1957596243E+01 -0.7355148466E-17 -0.2507272982E-01
  0.1200000000E+01  0.1000000000E+01  0.4698893521E-01  0.2321629323E+01 -0.4594176870E-16 -0.2241072186E+00  0.6548687064E+15  0.2322740489E+01 -0.4603566297E-16 -0.2036114522E+00
  0.1600000000E+01  0.1000000000E+01  0.1429536967E+00  0.6384470522E+01 -0.2656104264E-15 -0.1774103885E+01  0.6548687064E+15  0.6362750218E+01 -0.2659040553E-15 -0.1789887497E+01
  0.1553011065E+01  0.1000000000E+01  0.1429536967E+00  0.8086357190E+01 -0.1415794068E-15 -0.9436884562E+00  0.6548687064E+15  0.8076312383E+01 -0.1413448386E-15 -0.9542191223E+00
  0.1457046303E+01  0.1000000000E+01  0.1429536967E+00  0.6040325377E+01  0.3210544489E-16 -0.9374263744E+00  0.6548687064E+15  0.6031424847E+01  0.3136507154E-16 -0.9358378529E+00
  0.1342953697E+01  0.1000000000E+01  0.1429536967E+00  0.6000183874E+01  0.1005407606E-15 -0.2279143680E+00  0.6548687064E+15  0.5991856833E+01  0.1002616600E-15 -0.2171338047E+00
  0.1246988935E+01  0.1000000000E+01  0.1429536967E+00  0.4627238987E+01  0.2692451988E-16 -0.7785552042E+00  0.6548687064E+15  0.4623033182E+01  0.2733316869E-16 -0.7647996119E+00
  0.1200000000E+01  0.1000000000E+01  0.1429536967E+00  0.5339428674E+01 -0.6226097294E-16 -0.6452086091E+00  0.6548687064E+15  0.5334824515E+01 -0.6217787392E-16 -0.6320926739E+00
  0.1600000000E+01  0.1000000000E+01  0.2570463033E+00  0.1133611338E+02  0.1050318829E-15 -0.3620542379E+01  0.6548687064E+15  0.1133000665E+02  0.1049278000E-15 -0.3636259455E+01
  0.1553011065E+01  0.1000000000E+01  0.2570463033E+00  0.1026172505E+02  0.1278369715E-15 -0.2539153126E+01  0.6548687064E+15  0.1024275821E+02  0.1275586322E-15 -0.2547541796E+01
  0.1457046303E+01  0.1000000000E+01  0.2570463033E+00  0.8885995790E+01  0.1867365038E-15 -0.2417705504E+01  0.6548687064E+15  0.8866886624E+01  0.1855403542E-15 -0.2419759684E+01
  0.1342953697E+01  0.1000000000E+01  0.2570463033E+00  0.7231386761E+01  0.1330525492E-15 -0.1273348379E+01  0.6548687064E+15  0.7224731533E+01  0.1326602166E-15 -0.1273400330E+01
  0.1246988935E+01  0.1000000000E+01  0.2570463033E+00  0.5965004644E+01  0.4276819155E-16 -0.2004947562E+01  0.6548687064E+15  0.5964478130E+01  0.4268482652E-16 -0.2009068009E+01
  0.1200000000E+01  0.1000000000E+01  0.2570463033E+00  0.5527435155E+01 -0.6262851332E-17 -0.1763201237E+01  0.6548687064E+15  0.5526423054E+01 -0.6193987277E-17 -0.1771042389E+01
  0.1600000000E+01  0.1000000000E+01  0.3530110648E+00  0.9824477864E+01  0.2083841623E-15 -0.4141872784E+01  0.6548687064E+15  0.9806826094E+01  0.2083487298E-15 -0.4138677488E+01
  0.1553011065E+01  0.1000000000E+01  0.3530110648E+00  0.1000157971E+02  0.2127151999E-15 -0.4070541358E+01  0.6548687064E+15  0.9979956656E+01  0.2125462138E-15 -0.4068531367E+01
  0.1457046303E+01  0.1000000000E+01  0.3530110648E+00  0.8759110922E+01  0.2010267271E-15 -0.3654124132E+01  0.6548687064E+15  0.8738350876E+01  0.1996767468E-15 -0.3653980789E+01
  0.1342953697E+01  0.1000000000E+01  0.3530110648E+00  0.7434968690E+01  0.1512280532E-15 -0.2839240699E+01  0.6548687064E+15  0.7429598102E+01  0.1510568908E-15 -0.2838608690E+01
  0.1246988935E+01  0.1000000000E+01  0.3530110648E+00  0.5998122456E+01  0.6539965458E-16 -0.3002390812E+01  0.6548687064E+15  0.6000386310E+01  0.6540482201E-16 -0.2999547217E+01
  0.1200000000E+01  0.1000000000E+01  0.3530110648E+00  0.5876631779E+01  0.3352492106E-16 -0.2939711115E+01  0.6548687064E+15  0.5873137924E+01  0.3352278697E-16 -0.2936863842E+01
  0.1600000000E+01  0.1000000000E+01  0.4000000000E+00  0.9999856674E+01  0.2104570344E-15 -0.4867965866E+01  0.6548687064E+15  0.9985993945E+01  0.2103734454E-15 -0.4860900118E+01
  0.1553011065E+01  0.1000000000E+01  0.4000000000E+00  0.9320647567E+01  0.2251584114E-15 -0.4115270682E+01  0.6548687064E+15  0.9301653593E+01  0.2256174750E-15 -0.4105058135E+01
  0.1457046303E+01  0.1000000000E+01  0.4000000000E+00  0.8649797964E+01  0.1945852619E-15 -0.4223541354E+01  0.6548687064E+15  0.8629225628E+01  0.1948133237E-15 -0.4214251612E+01
  0.1342953697E+01  0.1000000000E+01  0.4000000000E+00  0.7176581050E+01  0.1588617417E-15 -0.3277518714E+01  0.6548687064E+15  0.7170936670E+01  0.1585724159E-15 -0.3269021558E+01
  0.1246988935E+01  0.1000000000E+01  0.4000000000E+00  0.6107874630E+01  0.6597787322E-16 -0.3596943217E+01  0.6548687064E+15  0.6107777424E+01  0.6595901870E-16 -0.3581469737E+01
  0.1200000000E+01  0.1000000000E+01  0.4000000000E+00  0.5495838795E+01  0.3966648499E-16 -0.3260580594E+01  0.6548687064E+15  0.5497166868E+01  0.3965634412E-16 -0.3248238885E+01
ZONE I=6, J=6, K=1, F=POINT
  0.2000000000E+01  0.1000000000E+01  0.0000000000E+00  0.2401850184E+01  0.7342846037E-19  0.2123368463E+02  0.6548687064E+15  0.2429774021E+01  0.9426000647E-19  0.2215489995E+02
  0.1953011065E+01  0.1000000000E+01  0.0000000000E+00  0.1290171580E+01 -0.3730767629E-16 -0.1379318927E+00  0.6548687064E+15  0.1295157006E+01 -0.3607193101E-16 -0.1509616823E+00
  0.1857046303E+01  0.1000000000E+01  0.0000000000E+00 -0.3086823904E+00 -0.1891498767E-16  0.1518911356E+00  0.6548687064E+15 -0.3080671684E+00 -0.1933540011E-16  0.1504471731E+00
  0.1742953697E+01  0.1000000000E+01  0.0000000000E+00  0.1323223883E+00  0.2100053195E-18 -0.3722646206E-01  0.6548687064E+15  0.1343694657E+00  0.1003139068E-18 -0.3693012508E-01
  0.1646988935E+01  0.1000000000E+01  0.0000000000E+00 -0.1295074613E+00  0.3231109592E-18  0.6064288785E-01  0.6548687064E+15 -0.1273767173E+00  0.2870784905E-18  0.5969390650E-01
  0.1600000000E+01  0.1000000000E+01  0.0000000000E+00  0.8638456665E-01 -0.1003924319E-17 -0.8380927982E-01  0.6548687064E+15  0.8753785449E-01 -0.1122551058E-17 -0.8230408565E-01
  0.2000000000E+01  0.1000000000E+01  0.4698893521E-01 -0.1281732618E-01  0.7477793757E-18  0.4848106566E+02  0.6548687064E+15 -0.5547960115E-01  0.6855136139E-18  0.4865706093E+02
  0.1953011065E+01  0.1000000000E+01  0.4698893521E-01  0.1095137224E+02  0.1358384008E-15  0.1457565643E+01  0.6548687064E+15  0.1093962567E+02  0.1346322444E-15  0.1475639868E+01
  0.1857046303E+01  0.1000000000E+01  0.4698893521E-01  0.1161665407E+02  0.2873162051E-15 -0.1894149873E+01  0.6548687064E+15  0.1161993528E+02  0.2876952935E-15 -0.1891022704E+01
  0.1742953697E+01  0.1000000000E+01  0.4698893521E-01  0.5730753257E+01 -0.4102547918E-16 -0.6365837798E+00  0.6548687064E+15  0.5737281735E+01 -0.4069671200E-16 -0.6426645503E+00
  0.1646988935E+01  0.1000000000E+01  0.4698893521E-01  0.4451397894E+01 -0.1213022038E-15 -0.6166824358E+00  0.6548687064E+15  0.4452385384E+01 -0.1215455073E-15 -0.6238385703E+00
  0.1600000000E+01  0.1000000000E+01  0.4698893521E-01  0.2830712520E+01 -0.8485100323E-16  0.2237364919E+00  0.6548687064E+15  0.2839191575E+01 -0.8465985412E-16  0.2104625226E+00
  0.2000000000E+01  0.1000000000E+01  0.1429536967E+00 -0.2817209838E+00  0.2736766214E-17  0.5050139912E+02  0.6548687064E+15 -0.2573808117E+00  0.2763918552E-17  0.5043957108E+02
  0.1953011065E+01  0.1000000000E+01  0.1429536967E+00  0.2777604427E+01 -0.5129715083E-15  0.1636808319E+02  0.6548687064E+15  0.2763910726E+01 -0.5128596615E-15  0.1640574820E+02
  0.1857046303E+01  0.1000000000E+01  0.1429536967E+00  0.1267966514E+02 -0.2606020512E-15 -0.3633914601E+01  0.6548687064E+15  0.1268305030E+02 -0.2610386464E-15 -0.3629665580E+01
  0.1742953697E+01  0.1000000000E+01  0.1429536967E+00  0.9960271102E+01 -0.2990417725E-16 -0.4049369270E+01  0.6548687064E+15  0.9972831907E+01 -0.2918746202E-16 -0.4062886978E+01
  0.1646988935E+01  0.1000000000E+01  0.1429536967E+00  0.9348645493E+01 -0.1598770062E-15 -0.2028314993E+01  0.6548687064E+15  0.9352044252E+01 -0.1595296180E-15 -0.2043816266E+01
  0.1600000000E+01  0.1000000000E+01  0.1429536967E+00  0.6012640094E+01 -0.2822160460E-15 -0.1774286196E+01  0.6548687064E+15  0.6031767219E+01 -0.2828259182E-15 -0.1794529484E+01
  0.2000000000E+01  0.1000000000E+01  0.2570463033E+00  0.1902217355E-01  0.1125029025E-17  0.4987168520E+02  0.6548687064E+15  0.1803835815E-01  0.1087872893E-17  0.4987783795E+02