TITLE = "Generated from ../MESH/Convergence_0000000000.hmesh and Convergence_0000002200.hsol"
VARIABLES = "x","y","z","veloT_x","veloT_y","veloT_z","slr_4","velo_x","velo_y","velo_z"
ZONE I=6, J=6, K=1, F=POINT
  0.4000000000E+00  0.1000000000E+01  0.0000000000E+00 -0.1170167517E-01  0.2829290899E-19  0.7261824164E-02  0.6129854866E+15 -0.1144458770E-01  0.2832668949E-19  0.7190549820E-02
  0.3530110648E+00  0.1000000000E+01  0.0000000000E+00 -0.1624201871E-02  0.1033826006E-19 -0.4729188760E-03  0.6129854866E+15 -0.1234180945E-02  0.1126892559E-19 -0.4825372639E-03
  0.2570463033E+00  0.1000000000E+01  0.0000000000E+00 -0.3880346978E-03  0.1659255381E-20  0.2194669645E-02  0.6129854866E+15 -0.7925134802E-04  0.1878631215E-20  0.2190378792E-02
  0.1429536967E+00  0.1000000000E+01  0.0000000000E+00 -0.1519855388E-02  0.3622419190E-21 -0.1142053553E-02  0.6129854866E+15 -0.1024304182E-02  0.4006792396E-21 -0.1090082317E-02
  0.4698893521E-01  0.1000000000E+01  0.0000000000E+00  0.1118716742E-02 -0.2092733003E-20  0.1995749832E-02  0.6129854866E+15  0.1642803595E-02 -0.2146303678E-20  0.1955634401E-02
  0.0000000000E+00  0.1000000000E+01  0.0000000000E+00 -0.7567768038E-02  0.1309857147E-22  0.2144179950E-02  0.6129854866E+15 -0.7501950937E-02  0.1545630895E-22  0.2117407754E-02
  0.4000000000E+00  0.1000000000E+01  0.4698893521E-01  0.2605390466E+00  0.2685199060E-17 -0.5605830480E-01  0.6129854866E+15  0.2607267654E+00  0.2684488796E-17 -0.4828903492E-01
  0.3530110648E+00  0.1000000000E+01  0.4698893521E-01  0.1226368375E+00  0.2390339771E-17 -0.1780120661E-01  0.6129854866E+15  0.1232344646E+00  0.2375543998E-17 -0.1031441373E-01
  0.2570463033E+00  0.1000000000E+01  0.4698893521E-01  0.9780536163E-01  0.7786895891E-18 -0.2436463503E-01  0.6129854866E+15  0.9841734813E-01  0.7850501658E-18 -0.1966866434E-01
  0.1429536967E+00  0.1000000000E+01  0.4698893521E-01  0.4460239803E-02  0.1110623904E-18 -0.1230584822E-01  0.6129854866E+15  0.4883415808E-02  0.1134057907E-18 -0.1062852551E-01
  0.4698893521E-01  0.1000000000E+01  0.4698893521E-01 -0.2830682514E-02  0.6081360841E-20 -0.8013907103E-02  0.6129854866E+15 -0.2616692991E-02  0.6053410790E-20 -0.7849493224E-02
  0.0000000000E+00  0.1000000000E+01  0.4698893521E-01 -0.1813991916E-01  0.9760445676E-21  0.2913822862E-02  0.6129854866E+15 -0.1813468329E-01  0.9656107214E-21  0.2435255160E-02
  0.4000000000E+00  0.1000000000E+01  0.1429536967E+00  0.5522545502E+00  0.8642953860E-17 -0.1327428734E+00  0.6129854866E+15  0.5520664245E+00  0.8644794363E-17 -0.1304276478E+00
  0.3530110648E+00  0.1000000000E+01  0.1429536967E+00  0.3029939663E+00  0.5151909557E-17 -0.1688338589E+00  0.6129854866E+15  0.3034816101E+00  0.5127144542E-17 -0.1653568635E+00
  0.2570463033E+00  0.1000000000E+01  0.1429536967E+00  0.2157964726E+00  0.1548605462E-17 -0.1090825322E+00  0.6129854866E+15  0.2179862558E+00  0.1553553512E-17 -0.1031710902E+00
  0.1429536967E+00  0.1000000000E+01  0.1429536967E+00  0.2751833621E-01  0.3682424318E-18 -0.1184078188E+00  0.6129854866E+15  0.3084846566E-01  0.3710212649E-18 -0.1141141517E+00
  0.4698893521E-01  0.1000000000E+01  0.1429536967E+00 -0.1002274418E-01  0.4218483390E-19 -0.1193723002E-01  0.6129854866E+15 -0.7806913594E-02  0.3745027972E-19 -0.1103083443E-01
  0.0000000000E+00  0.1000000000E+01  0.1429536967E+00 -0.2123478178E-01  0.3172885496E-21 -0.6220894575E-03  0.6129854866E+15 -0.2119720293E-01  0.4908957557E-21 -0.9965001394E-03
  0.4000000000E+00  0.1000000000E+01  0.2570463033E+00  0.5787744667E+00  0.1597530421E-17 -0.3545258813E+00  0.6129854866E+15  0.5745580452E+00  0.1584694140E-17 -0.3627939842E+00
  0.3530110648E+00  0.1000000000E+01  0.2570463033E+00  0.4237308769E+00  0.3686572503E-18 -0.3997253328E+00  0.6129854866E+15  0.4173435379E+00  0.2952492839E-18 -0.4051337408E+00
  0.2570463033E+00  0.1000000000E+01  0.2570463033E+00  0.2611568031E+00  0.4710455921E-18 -0.2786847816E+00  0.6129854866E+15  0.2596279891E+00  0.4713239524E-18 -0.2783033977E+00
  0.1429536967E+00  0.1000000000E+01  0.2570463033E+00  0.6441346559E-01  0.5760354946E-18 -0.2734248970E+00  0.6129854866E+15  0.7061726562E-01  0.5759302090E-18 -0.2718394118E+00
  0.4698893521E-01  0.1000000000E+01  0.2570463033E+00  0.1374772486E-02  0.6735879287E-18 -0.5111850546E-01  0.6129854866E+15  0.5982436779E-02  0.6773742222E-18 -0.5083003313E-01
  0.0000000000E+00  0.1000000000E+01  0.2570463033E+00 -0.1424969786E-01 -0.4122795514E-20 -0.6075816324E-03  0.6129854866E+15 -0.1418260625E-01 -0.4571296859E-20 -0.9397061766E-03
  0.4000000000E+00  0.1000000000E+01  0.3530110648E+00  0.5639903953E+00  0.1272941036E-17 -0.5640767584E+00  0.6129854866E+15  0.5578225136E+00  0.1280327793E-17 -0.5648211603E+00
  0.3530110648E+00  0.1000000000E+01  0.3530110648E+00  0.4073981381E+00  0.9615970368E-18 -0.5801778802E+00  0.6129854866E+15  0.3974038566E+00  0.9646224889E-18 -0.5817678993E+00
  0.2570463033E+00  0.1000000000E+01  0.3530110648E+00  0.2486150029E+00  0.1377912847E-18 -0.4455079515E+00  0.6129854866E+15  0.2449452123E+00  0.1698029280E-18 -0.4478403032E+00
  0.1429536967E+00  0.1000000000E+01  0.3530110648E+00  0.5917052935E-01  0.8176823774E-18 -0.3933814882E+00  0.6129854866E+15  0.6513020341E-01  0.8281102793E-18 -0.3944878244E+00
  0.4698893521E-01  0.1000000000E+01  0.3530110648E+00  0.3149293756E-02  0.1976541799E-18 -0.1088403879E+00  0.6129854866E+15  0.7690627517E-02  0.1985585610E-18 -0.1089068203E+00
  0.0000000000E+00  0.1000000000E+01  0.3530110648E+00 -0.1422286500E-01  0.4624725786E-20 -0.7776090010E-03  0.6129854866E+15 -0.1417553838E-01  0.4375059967E-20 -0.1197956251E-02
  0.4000000000E+00  0.1000000000E+01  0.4000000000E+00  0.5238541596E+00  0.3100886490E-17 -0.6579999528E+00  0.6129854866E+15  0.5212952193E+00  0.3095492374E-17 -0.6481624836E+00
  0.3530110648E+00  0.1000000000E+01  0.4000000000E+00  0.4183852217E+00  0.2518004831E-17 -0.6690748709E+00  0.6129854866E+15  0.4111643237E+00  0.2527981857E-17 -0.6648309866E+00
  0.2570463033E+00  0.1000000000E+01  0.4000000000E+00  0.2402473553E+00 -0.1331689542E-18 -0.5279896785E+00  0.6129854866E+15  0.2366884805E+00 -0.1509459860E-18 -0.5288033656E+00
  0.1429536967E+00  0.1000000000E+01  0.4000000000E+00  0.6521818309E-01  0.7998390983E-18 -0.4595871456E+00  0.6129854866E+15  0.7036008286E-01  0.8249789533E-18 -0.4581503866E+00
  0.4698893521E-01  0.1000000000E+01  0.4000000000E+00 -0.5593144420E-03  0.1491465459E-18 -0.1372676840E+00  0.6129854866E+15  0.4136814518E-02  0.1446016993E-18 -0.1362134490E+00
  0.0000000000E+00  0.1000000000E+01  0.4000000000E+00 -0.6565570446E-02  0.7971342195E-20 -0.2335247116E-02  0.6129854866E+15 -0.6639152627E-02  0.8172328320E-20 -0.2426474013E-02
ZONE I=6, J=6, K=1, F=POINT
  0.8000000000E+00  0.1000000000E+01  0.0000000000E+00  0.1732506747E-01 -0.7854574053E-19 -0.1158724912E-01  0.6129854866E+15  0.1756073995E-01 -0.8046436302E-19 -0.1164717440E-01
  0.7530110648E+00  0.1000000000E+01  0.0000000000E+00  0.1915173089E-02  0.8699614926E-19  0.5807434810E-02  0.6129854866E+15  0.2233661440E-02  0.9696478256E-19  0.5838988945E-02
  0.6570463033E+00  0.1000000000E+01  0.0000000000E+00 -0.4511134152E-03  0.2325388380E-19  0.1313343988E-03  0.6129854866E+15 -0.1565601270E-03  0.2582548839E-19  0.1243336783E-03
  0.5429536967E+00  0.1000000000E+01  0.0000000000E+00  0.9292260233E-03  0.3245062611E-19  0.6625220580E-02  0.6129854866E+15  0.1223336684E-02  0.3876421091E-19  0.6611581765E-02
  0.4469889352E+00  0.1000000000E+01  0.0000000000E+00 -0.1771868189E-02 -0.3030027293E-19  0.3298061874E-03  0.6129854866E+15 -0.1503075248E-02 -0.2005227680E-19  0.2915583106E-03
  0.4000000000E+00  0.1000000000E+01  0.0000000000E+00  0.1459127490E-01  0.3193636460E-19  0.6949780516E-02  0.6129854866E+15  0.1483377439E-01  0.3200835941E-19  0.6893117760E-02
  0.8000000000E+00  0.1000000000E+01  0.4698893521E-01  0.3116625981E+00 -0.2557458463E-16 -0.5444583197E-02  0.6129854866E+15  0.3114753472E+00 -0.2556739797E-16  0.5697723805E-02
  0.7530110648E+00  0.1000000000E+01  0.4698893521E-01  0.5081581314E+00 -0.2499791082E-16 -0.6652459635E-01  0.6129854866E+15  0.5088053202E+00 -0.2504640454E-16 -0.5566171547E-01
  0.6570463033E+00  0.1000000000E+01  0.4698893521E-01  0.2945283223E+00 -0.5460123594E-17 -0.3660035864E-01  0.6129854866E+15  0.2960108750E+00 -0.5429243755E-17 -0.2732405510E-01
  0.5429536967E+00  0.1000000000E+01  0.4698893521E-01  0.3255887981E+00  0.4145762973E-17 -0.2519381057E-01  0.6129854866E+15  0.3266817213E+00  0.4169183659E-17 -0.1787509741E-01
  0.4469889352E+00  0.1000000000E+01  0.4698893521E-01  0.1977010793E+00  0.3693827261E-17 -0.1480296492E-01  0.6129854866E+15  0.1980565977E+00  0.3685399760E-17 -0.6776278949E-02
  0.4000000000E+00  0.1000000000E+01  0.4698893521E-01  0.3019136230E+00  0.2448252874E-17 -0.5682171573E-01  0.6129854866E+15  0.3024105935E+00  0.2445487598E-17 -0.4904028203E-01
  0.8000000000E+00  0.1000000000E+01  0.1429536967E+00  0.8961890344E+00 -0.5641592263E-16 -0.3600683697E+00  0.6129854866E+15  0.8973909447E+00 -0.5637036208E-16 -0.3373626450E+00
  0.7530110648E+00  0.1000000000E+01  0.1429536967E+00  0.1207986226E+01 -0.3651227291E-16 -0.2230608419E+00  0.6129854866E+15  0.1213740763E+01 -0.3668645128E-16 -0.2034928927E+00
  0.6570463033E+00  0.1000000000E+01  0.1429536967E+00  0.8005383795E+00 -0.6247755981E-17 -0.2236619175E+00  0.6129854866E+15  0.8075455899E+00 -0.6524950352E-17 -0.2137689369E+00
  0.5429536967E+00  0.1000000000E+01  0.1429536967E+00  0.7588329384E+00  0.8477302635E-17 -0.8146835197E-01  0.6129854866E+15  0.7614742450E+00  0.8554757492E-17 -0.7795601193E-01
  0.4469889352E+00  0.1000000000E+01  0.1429536967E+00  0.4757952047E+00  0.8797885121E-17 -0.1570798300E+00  0.6129854866E+15  0.4759012215E+00  0.8786516997E-17 -0.1553580386E+00
  0.4000000000E+00  0.1000000000E+01  0.1429536967E+00  0.6035319882E+00  0.9353509147E-17 -0.1322125900E+00  0.6129854866E+15  0.6035633654E+00  0.9360892064E-17 -0.1298998698E+00
  0.8000000000E+00  0.1000000000E+01  0.2570463033E+00  0.1624025930E+01 -0.1675877067E-16 -0.8047815280E+00  0.6129854866E+15  0.1630906936E+01 -0.1675798722E-16 -0.7921464405E+00
  0.7530110648E+00  0.1000000000E+01  0.2570463033E+00  0.1541826005E+01 -0.1335566541E-16 -0.5714168701E+00  0.6129854866E+15  0.1558827420E+01 -0.1328792578E-16 -0.5611620168E+00
  0.6570463033E+00  0.1000000000E+01  0.2570463033E+00  0.1160348216E+01 -0.6855981750E-17 -0.5389044289E+00  0.6129854866E+15  0.1178176581E+01 -0.7341461530E-17 -0.5357671186E+00
  0.5429536967E+00  0.1000000000E+01  0.2570463033E+00  0.9034823674E+00  0.1897973546E-18 -0.2988360708E+00  0.6129854866E+15  0.9118533005E+00  0.3310358946E-18 -0.3044211351E+00
  0.4469889352E+00  0.1000000000E+01  0.2570463033E+00  0.6302221744E+00  0.1111314308E-17 -0.4019366353E+00  0.6129854866E+15  0.6310252053E+00  0.9984175008E-18 -0.4110516292E+00
  0.4000000000E+00  0.1000000000E+01  0.2570463033E+00  0.6099698018E+00  0.1622863648E-17 -0.3538988815E+00  0.6129854866E+15  0.6049051226E+00  0.1611153613E-17 -0.3621967952E+00
  0.8000000000E+00  0.1000000000E+01  0.3530110648E+00  0.1617825365E+01 -0.3942154835E-17 -0.1143325669E+01  0.6129854866E+15  0.1626597204E+01 -0.3937470379E-17 -0.1139612905E+01
  0.7530110648E+00  0.1000000000E+01  0.3530110648E+00  0.1582586763E+01  0.2001148416E-17 -0.9524455532E+00  0.6129854866E+15  0.1599342746E+01  0.2900753246E-17 -0.9466308155E+00
  0.6570463033E+00  0.1000000000E+01  0.3530110648E+00  0.1197441002E+01 -0.4062658123E-17 -0.8238247613E+00  0.6129854866E+15  0.1220090508E+01 -0.4960887299E-17 -0.8141479018E+00
  0.5429536967E+00  0.1000000000E+01  0.3530110648E+00  0.9116358429E+00 -0.3689049774E-17 -0.5566131418E+00  0.6129854866E+15  0.9263380103E+00 -0.4618716808E-17 -0.5530581885E+00
  0.4469889352E+00  0.1000000000E+01  0.3530110648E+00  0.5934084458E+00  0.1009596877E-17 -0.6043809021E+00  0.6129854866E+15  0.5945740791E+00  0.1004786680E-17 -0.6040276842E+00
  0.4000000000E+00  0.1000000000E+01  0.3530110648E+00  0.5967060907E+00  0.1248952315E-17 -0.5638985946E+00  0.6129854866E+15  0.5909322532E+00  0.1256501935E-17 -0.5646460859E+00
  0.8000000000E+00  0.1000000000E+01  0.4000000000E+00  0.1625243319E+01 -0.1159442451E-16 -0.1354563360E+01  0.6129854866E+15  0.1633302453E+01 -0.1159751145E-16 -0.1343465350E+01
  0.7530110648E+00  0.1000000000E+01  0.4000000000E+00  0.1470684616E+01 -0.7082191019E-17 -0.1103182214E+01  0.6129854866E+15  0.1483514765E+01 -0.6949542961E-17 -0.1088224642E+01
  0.6570463033E+00  0.1000000000E+01  0.4000000000E+00  0.1151549045E+01 -0.4358174743E-17 -0.9657314306E+00  0.6129854866E+15  0.1174122590E+01 -0.4165821804E-17 -0.9450887409E+00
  0.5429536967E+00  0.1000000000E+01  0.4000000000E+00  0.8568422809E+00  0.1950819617E-17 -0.7118092676E+00  0.6129854866E+15  0.8742734657E+00  0.2657011155E-17 -0.6942734227E+00
  0.4469889352E+00  0.1000000000E+01  0.4000000000E+00  0.6172709815E+00  0.3204609972E-17 -0.7164851297E+00  0.6129854866E+15  0.6195953888E+00  0.3137629903E-17 -0.7044558799E+00
  0.4000000000E+00  0.1000000000E+01  0.4000000000E+00  0.5363515256E+00  0.3119381322E-17 -0.6572951584E+00  0.6129854866E+15  0.5336432103E+00  0.3117672202E-17 -0.6475057653E+00
ZONE I=6, J=6, K=1, F=POINT
  0.1200000000E+01  0.1000000000E+01  0.0000000000E+00 -0.3261925382E-01  0.6006156964E-19  0.3656991155E-01  0.6129854866E+15 -0.3332752913E-01  0.6131482175E-19  0.3727402843E-01
  0.1153011065E+01  0.1000000000E+01  0.0000000000E+00 -0.5731414719E-02 -0.2306045924E-18 -0.9732079058E-02  0.6129854866E+15 -0.6310974746E-02 -0.2615052946E-18 -0.9515198623E-02
  0.1057046303E+01  0.1000000000E+01  0.0000000000E+00  0.1945693110E-02  0.1835217548E-19  0.5894579712E-02  0.6129854866E+15  0.1644073061E-02  0.9715175177E-20  0.5941312359E-02
  0.9429536967E+00  0.1000000000E+01  0.0000000000E+00 -0.2367785997E-02  0.1412235226E-19 -0.8210133522E-02  0.6129854866E+15 -0.2609372847E-02  0.1347043101E-19 -0.8126850750E-02
  0.8469889352E+00  0.1000000000E+01  0.0000000000E+00  0.3264633000E-02 -0.1423475473E-19  0.5237206148E-02  0.6129854866E+15  0.3017810883E-02 -0.1515978070E-19  0.5272439267E-02
  0.8000000000E+00  0.1000000000E+01  0.0000000000E+00 -0.2732682004E-01 -0.8810025619E-19 -0.1109643605E-01  0.6129854866E+15 -0.2742418841E-01 -0.9016984811E-19 -0.1110240015E-01
  0.1200000000E+01  0.1000000000E+01  0.4698893521E-01  0.2024079454E+01 -0.4153853340E-16 -0.1977975665E+00  0.6129854866E+15  0.2021788762E+01 -0.4141515244E-16 -0.1855841281E+00
  0.1153011065E+01  0.1000000000E+01  0.4698893521E-01  0.1363321705E+01 -0.2642625603E-16 -0.5217547920E-01  0.6129854866E+15  0.1362490936E+01 -0.2641072916E-16 -0.4094011351E-01
  0.1057046303E+01  0.1000000000E+01  0.4698893521E-01  0.1268371222E+01 -0.1276781444E-16 -0.9173423938E-01  0.6129854866E+15  0.1267005264E+01 -0.1277265316E-16 -0.8293870614E-01
  0.9429536967E+00  0.1000000000E+01  0.4698893521E-01  0.7082993556E+00 -0.1638067201E-16 -0.8655547927E-01  0.6129854866E+15  0.7068754826E+00 -0.1633026686E-16 -0.7509443031E-01
  0.8469889352E+00  0.1000000000E+01  0.4698893521E-01  0.6314027794E+00 -0.2984862718E-16 -0.9047622439E-01  0.6129854866E+15  0.6312892571E+00 -0.2985307943E-16 -0.7885179063E-01
  0.8000000000E+00  0.1000000000E+01  0.4698893521E-01  0.2509347170E+00 -0.2488047410E-16 -0.3383176150E-02  0.6129854866E+15  0.2508829686E+00 -0.2488053878E-16  0.7702498735E-02
  0.1200000000E+01  0.1000000000E+01  0.1429536967E+00  0.4491423257E+01 -0.5847761840E-16 -0.5343330325E+00  0.6129854866E+15  0.4491222896E+01 -0.5836349599E-16 -0.5286159113E+00
  0.1153011065E+01  0.1000000000E+01  0.1429536967E+00  0.3098951662E+01 -0.6847276404E-16 -0.7414211108E+00  0.6129854866E+15  0.3098284189E+01 -0.6861848363E-16 -0.7337551768E+00
  0.1057046303E+01  0.1000000000E+01  0.1429536967E+00  0.2831253989E+01 -0.4180819915E-16 -0.5424846091E+00  0.6129854866E+15  0.2827908686E+01 -0.4179815156E-16 -0.5294043703E+00
  0.9429536967E+00  0.1000000000E+01  0.1429536967E+00  0.1703629054E+01 -0.3754740166E-16 -0.6783570473E+00  0.6129854866E+15  0.1698750531E+01 -0.3753314545E-16 -0.6604359278E+00
  0.8469889352E+00  0.1000000000E+01  0.1429536967E+00  0.1498414070E+01 -0.5331835677E-16 -0.3696268267E+00  0.6129854866E+15  0.1497452011E+01 -0.5340742938E-16 -0.3468931532E+00
  0.8000000000E+00  0.1000000000E+01  0.1429536967E+00  0.8127340435E+00 -0.5862498747E-16 -0.3616009447E+00  0.6129854866E+15  0.8156482671E+00 -0.5858712687E-16 -0.3389001089E+00
  0.1200000000E+01  0.1000000000E+01  0.2570463033E+00  0.4185210292E+01 -0.1365448190E-16 -0.1468773624E+01  0.6129854866E+15  0.4179978479E+01 -0.1360582780E-16 -0.1470700119E+01
  0.1153011065E+01  0.1000000000E+01  0.2570463033E+00  0.3738415152E+01 -0.5157125056E-16 -0.1713087358E+01  0.6129854866E+15  0.3728703515E+01 -0.5041251592E-16 -0.1713218484E+01
  0.1057046303E+01  0.1000000000E+01  0.2570463033E+00  0.3091197038E+01 -0.4144436844E-16 -0.1332250152E+01  0.6129854866E+15  0.3081167986E+01 -0.4147307868E-16 -0.1325384233E+01
  0.9429536967E+00  0.1000000000E+01  0.2570463033E+00  0.2331297679E+01 -0.3957231405E-16 -0.1427611476E+01  0.6129854866E+15  0.2321680241E+01 -0.3902970726E-16 -0.1414776565E+01
  0.8469889352E+00  0.1000000000E+01  0.2570463033E+00  0.1929461528E+01 -0.1894367686E-16 -0.8594633794E+00  0.6129854866E+15  0.1926095665E+01 -0.1889921203E-16 -0.8458260058E+00
  0.8000000000E+00  0.1000000000E+01  0.2570463033E+00  0.1587140276E+01 -0.1693446243E-16 -0.8071370812E+00  0.6129854866E+15  0.1594832635E+01 -0.1692163984E-16 -0.7942160608E+00
  0.1200000000E+01  0.1000000000E+01  0.3530110648E+00  0.4054352801E+01  0.1658698090E-16 -0.2441059930E+01  0.6129854866E+15  0.4045369198E+01  0.1661644316E-16 -0.2439553850E+01
  0.1153011065E+01  0.1000000000E+01  0.3530110648E+00  0.3432648669E+01 -0.4114832425E-17 -0.2352800310E+01  0.6129854866E+15  0.3420740432E+01 -0.3929462332E-17 -0.2350075330E+01
  0.1057046303E+01  0.1000000000E+01  0.3530110648E+00  0.2928360219E+01 -0.2175565927E-16 -0.1982180785E+01  0.6129854866E+15  0.2912657280E+01 -0.2180705446E-16 -0.1977326612E+01
  0.9429536967E+00  0.1000000000E+01  0.3530110648E+00  0.2234085889E+01 -0.2629992439E-16 -0.1831502852E+01  0.6129854866E+15  0.2223255343E+01 -0.2599915409E-16 -0.1821709997E+01
  0.8469889352E+00  0.1000000000E+01  0.3530110648E+00  0.1956431310E+01 -0.7621516583E-17 -0.1299714245E+01  0.6129854866E+15  0.1958158696E+01 -0.7650576259E-17 -0.1294401536E+01
  0.8000000000E+00  0.1000000000E+01  0.3530110648E+00  0.1571459457E+01 -0.3896916513E-17 -0.1143529367E+01  0.6129854866E+15  0.1580690831E+01 -0.3877763592E-17 -0.1139886679E+01
  0.1200000000E+01  0.1000000000E+01  0.4000000000E+00  0.3615809897E+01  0.1784207465E-16 -0.2670569566E+01  0.6129854866E+15  0.3603544026E+01  0.1786289116E-16 -0.2669846866E+01
  0.1153011065E+01  0.1000000000E+01  0.4000000000E+00  0.3356063593E+01  0.9833939280E-17 -0.2763148138E+01  0.6129854866E+15  0.3342667941E+01  0.9712799265E-17 -0.2760626919E+01
  0.1057046303E+01  0.1000000000E+01  0.4000000000E+00  0.2725088767E+01 -0.1256278241E-16 -0.2258832288E+01  0.6129854866E+15  0.2707379161E+01 -0.1260175112E-16 -0.2250826140E+01
  0.9429536967E+00  0.1000000000E+01  0.4000000000E+00  0.2169904881E+01 -0.2668369174E-16 -0.2080396187E+01  0.6129854866E+15  0.2158864005E+01 -0.2621184760E-16 -0.2069716606E+01
  0.8469889352E+00  0.1000000000E+01  0.4000000000E+00  0.1801414853E+01 -0.1744295760E-16 -0.1473297374E+01  0.6129854866E+15  0.1805406999E+01 -0.1752764169E-16 -0.1462735910E+01
  0.8000000000E+00  0.1000000000E+01  0.4000000000E+00  0.1621354930E+01 -0.1158098006E-16 -0.1357615716E+01  0.6129854866E+15  0.1629254189E+01 -0.1158034679E-16 -0.1346281286E+01
ZONE I=6, J=6, K=1, F=POINT
  0.1600000000E+01  0.1000000000E+01  0.0000000000E+00  0.1294725093E+00 -0.8718455059E-18 -0.7301088187E-01  0.6129854866E+15  0.1277454230E+00 -0.9983928685E-18 -0.7269827340E-01
  0.1553011065E+01  0.1000000000E+01  0.0000000000E+00  0.9124553817E-02 -0.1256558028E-17  0.4532434093E-01  0.6129854866E+15  0.7891396129E-02 -0.1229031904E-17  0.4515939791E-01
  0.1457046303E+01  0.1000000000E+01  0.0000000000E+00 -0.8710747443E-02 -0.4478130749E-19 -0.3303281215E-02  0.6129854866E+15 -0.1010504535E-01 -0.3279139991E-19 -0.3285250820E-02
  0.1342953697E+01  0.1000000000E+01  0.0000000000E+00  0.4039234519E-02  0.3358969720E-18  0.2989850278E-01  0.6129854866E+15  0.2679807972E-02  0.2608383897E-18  0.2984766199E-01
  0.1246988935E+01  0.1000000000E+01  0.0000000000E+00 -0.8631776195E-02  0.1117779617E-18 -0.8173039138E-02  0.6129854866E+15 -0.9752887639E-02  0.1113479931E-18 -0.7912774154E-02
  0.1200000000E+01  0.1000000000E+01  0.0000000000E+00  0.5698590245E-01  0.6418299611E-19  0.3663238441E-01  0.6129854866E+15  0.5616151503E-01  0.6518453744E-19  0.3732107030E-01
  0.1600000000E+01  0.1000000000E+01  0.4698893521E-01  0.2910646097E+01 -0.8970563346E-16  0.1958407203E+00  0.6129854866E+15  0.2904712733E+01 -0.8956258284E-16  0.2014821876E+00
  0.1553011065E+01  0.1000000000E+01  0.4698893521E-01  0.3328456261E+01 -0.4563190344E-16 -0.3040526463E+00  0.6129854866E+15  0.3323047315E+01 -0.4580110068E-16 -0.2979298331E+00
  0.1457046303E+01  0.1000000000E+01  0.4698893521E-01  0.2301011773E+01 -0.5767544852E-17 -0.9913991189E-01  0.6129854866E+15  0.2296459634E+01 -0.5608934717E-17 -0.9214600255E-01
  0.1342953697E+01  0.1000000000E+01  0.4698893521E-01  0.2277385788E+01  0.2998564270E-16 -0.6272752083E-01  0.6129854866E+15  0.2271613500E+01  0.2993577153E-16 -0.5617010017E-01
  0.1246988935E+01  0.1000000000E+01  0.4698893521E-01  0.1737881935E+01 -0.5392205544E-17 -0.2101750070E-01  0.6129854866E+15  0.1731851933E+01 -0.5654333574E-17 -0.1051385319E-01
  0.1200000000E+01  0.1000000000E+01  0.4698893521E-01  0.2122213310E+01 -0.4576132925E-16 -0.2034689615E+00  0.6129854866E+15  0.2117457532E+01 -0.4558037425E-16 -0.1908923429E+00
  0.1600000000E+01  0.1000000000E+01  0.1429536967E+00  0.5776482329E+01 -0.2678823001E-15 -0.2032813250E+01  0.6129854866E+15  0.5756640680E+01 -0.2681506822E-15 -0.2019161572E+01
  0.1553011065E+01  0.1000000000E+01  0.1429536967E+00  0.7362703430E+01 -0.1512668337E-15 -0.1142989136E+01  0.6129854866E+15  0.7356268800E+01 -0.1512699006E-15 -0.1129648201E+01
  0.1457046303E+01  0.1000000000E+01  0.1429536967E+00  0.5188320511E+01  0.3111972119E-16 -0.1008659773E+01  0.6129854866E+15  0.5185856659E+01  0.3076316970E-16 -0.9965206679E+00
  0.1342953697E+01  0.1000000000E+01  0.1429536967E+00  0.5146598312E+01  0.1042713979E-15 -0.1845555907E+00  0.6129854866E+15  0.5141558629E+01  0.1040961794E-15 -0.1749492347E+00
  0.1246988935E+01  0.1000000000E+01  0.1429536967E+00  0.3879936429E+01  0.2749426982E-16 -0.6598209472E+00  0.6129854866E+15  0.3873143698E+01  0.2813550587E-16 -0.6531459166E+00
  0.1200000000E+01  0.1000000000E+01  0.1429536967E+00  0.4655034433E+01 -0.6261291287E-16 -0.5293048678E+00  0.6129854866E+15  0.4646128492E+01 -0.6240673375E-16 -0.5241273971E+00
  0.1600000000E+01  0.1000000000E+01  0.2570463033E+00  0.9960763308E+01  0.7345527922E-16 -0.4206381041E+01  0.6129854866E+15  0.9960476756E+01  0.7339391010E-16 -0.4206150968E+01
  0.1553011065E+01  0.1000000000E+01  0.2570463033E+00  0.8768304945E+01  0.9807343509E-16 -0.2967970671E+01  0.6129854866E+15  0.8766374955E+01  0.9803493401E-16 -0.2963422694E+01
  0.1457046303E+01  0.1000000000E+01  0.2570463033E+00  0.7277122953E+01  0.1751755311E-15 -0.2556469042E+01  0.6129854866E+15  0.7277056328E+01  0.1750264020E-15 -0.2553226454E+01
  0.1342953697E+01  0.1000000000E+01  0.2570463033E+00  0.5685938961E+01  0.1322671962E-15 -0.1132097585E+01  0.6129854866E+15  0.5687289311E+01  0.1322941065E-15 -0.1131856945E+01
  0.1246988935E+01  0.1000000000E+01  0.2570463033E+00  0.4572220708E+01  0.3963476268E-16 -0.1711761879E+01  0.6129854866E+15  0.4570411258E+01  0.3949062539E-16 -0.1713749535E+01
  0.1200000000E+01  0.1000000000E+01  0.2570463033E+00  0.4225402271E+01 -0.1398450599E-16 -0.1460355838E+01  0.6129854866E+15  0.4219864966E+01 -0.1392483622E-16 -0.1464394935E+01
  0.1600000000E+01  0.1000000000E+01  0.3530110648E+00  0.7937446702E+01  0.1429540783E-15 -0.5012523382E+01  0.6129854866E+15  0.7930674664E+01  0.1429532785E-15 -0.5015297753E+01
  0.1553011065E+01  0.1000000000E+01  0.3530110648E+00  0.7991368218E+01  0.1573936640E-15 -0.4694322666E+01  0.6129854866E+15  0.7988530728E+01  0.1573674145E-15 -0.4698742932E+01
  0.1457046303E+01  0.1000000000E+01  0.3530110648E+00  0.6653093988E+01  0.1702267529E-15 -0.3810005317E+01  0.6129854866E+15  0.6655240200E+01  0.1702957544E-15 -0.3815006930E+01
  0.1342953697E+01  0.1000000000E+01  0.3530110648E+00  0.5418453829E+01  0.1360314829E-15 -0.2579868531E+01  0.6129854866E+15  0.5420709412E+01  0.1361352466E-15 -0.2585784911E+01
  0.1246988935E+01  0.1000000000E+01  0.3530110648E+00  0.4150067684E+01  0.5024726968E-16 -0.2531382681E+01  0.6129854866E+15  0.4145650842E+01  0.5050312621E-16 -0.2532659757E+01
  0.1200000000E+01  0.1000000000E+01  0.3530110648E+00  0.4130591530E+01  0.1666723627E-16 -0.2441819823E+01  0.6129854866E+15  0.4119376363E+01  0.1667274867E-16 -0.2439897966E+01
  0.1600000000E+01  0.1000000000E+01  0.4000000000E+00  0.7938096113E+01  0.1331129300E-15 -0.5901595181E+01  0.6129854866E+15  0.7934800209E+01  0.1330731711E-15 -0.5902481675E+01
  0.1553011065E+01  0.1000000000E+01  0.4000000000E+00  0.7135036472E+01  0.1597406806E-15 -0.4834780516E+01  0.6129854866E+15  0.7134309114E+01  0.1598870736E-15 -0.4836137169E+01
  0.1457046303E+01  0.1000000000E+01  0.4000000000E+00  0.6365331360E+01  0.1521140390E-15 -0.4383114624E+01  0.6129854866E+15  0.6367037996E+01  0.1521394572E-15 -0.4385065982E+01
  0.1342953697E+01  0.1000000000E+01  0.4000000000E+00  0.4987821719E+01  0.1365239603E-15 -0.2947363990E+01  0.6129854866E+15  0.4990641578E+01  0.1365978507E-15 -0.2950422084E+01
  0.1246988935E+01  0.1000000000E+01  0.4000000000E+00  0.4092276173E+01  0.4567370082E-16 -0.3034835336E+01  0.6129854866E+15  0.4084404807E+01  0.4585359486E-16 -0.3036084283E+01
  0.1200000000E+01  0.1000000000E+01  0.4000000000E+00  0.3590450793E+01  0.1809805239E-16 -0.2659823848E+01  0.6129854866E+15  0.3579361201E+01  0.1810420223E-16 -0.2661044425E+01
ZONE I=6, J=6, K=1, F=POINT
  0.2000000000E+01  0.1000000000E+01  0.0000000000E+00  0.2402701946E+01  0.7336728840E-19  0.2123420380E+02  0.6129854866E+15  0.2430490410E+01  0.9398003122E-19  0.2215518780E+02
  0.1953011065E+01  0.1000000000E+01  0.0000000000E+00  0.1291229533E+01 -0.3736313575E-16 -0.1368440725E+00  0.6129854866E+15  0.1294065696E+01 -0.3608249681E-16 -0.1502790628E+00
  0.1857046303E+01  0.1000000000E+01  0.0000000000E+00 -0.3071125711E+00 -0.1885273612E-16  0.1519688984E+00  0.6129854866E+15 -0.3093991637E+00 -0.1942597247E-16  0.1505356606E+00
  0.1742953697E+01  0.1000000000E+01  0.0000000000E+00  0.1337749059E+00  0.2482329529E-18 -0.3794210485E-01  0.6129854866E+15  0.1329428321E+00  0.1472303633E-18 -0.3762163729E-01
  0.1646988935E+01  0.1000000000E+01  0.0000000000E+00 -0.1282024188E+00  0.3685059938E-18  0.6068542581E-01  0.6129854866E+15 -0.1295389575E+00  0.3338216716E-18  0.5970215513E-01
  0.1600000000E+01  0.1000000000E+01  0.0000000000E+00  0.8802603429E-01 -0.9496472802E-18 -0.8524252096E-01  0.6129854866E+15  0.8595119025E-01 -0.1078526748E-17 -0.8357152853E-01
  0.2000000000E+01  0.1000000000E+01  0.4698893521E-01 -0.1095328415E-01  0.7415634878E-18  0.4848284341E+02  0.6129854866E+15 -0.5366506820E-01  0.6853492162E-18  0.4865653399E+02
  0.1953011065E+01  0.1000000000E+01  0.4698893521E-01  0.1098542402E+02  0.1417376021E-15  0.1488732459E+01  0.6129854866E+15  0.1096884518E+02  0.1404544955E-15  0.1504179628E+01
  0.1857046303E+01  0.1000000000E+01  0.4698893521E-01  0.1177054837E+02  0.3057897772E-15 -0.1866286628E+01  0.6129854866E+15  0.1176653290E+02  0.3056394992E-15 -0.1860206173E+01
  0.1742953697E+01  0.1000000000E+01  0.4698893521E-01  0.5863717715E+01 -0.2303190974E-16 -0.6785827847E+00  0.6129854866E+15  0.5863031907E+01 -0.2268104989E-16 -0.6725735961E+00
  0.1646988935E+01  0.1000000000E+01  0.4698893521E-01  0.4416714247E+01 -0.1188162038E-15 -0.6656207126E+00  0.6129854866E+15  0.4410928528E+01 -0.1187102862E-15 -0.6578468536E+00
  0.1600000000E+01  0.1000000000E+01  0.4698893521E-01  0.2749522528E+01 -0.8690551421E-16  0.1814805566E+00  0.6129854866E+15  0.2752650629E+01 -0.8657053266E-16  0.1818495923E+00
  0.2000000000E+01  0.1000000000E+01  0.1429536967E+00 -0.2810981733E+00  0.2666624893E-17  0.5050346829E+02  0.6129854866E+15 -0.2564909626E+00  0.2699910759E-17  0.5043872589E+02
  0.1953011065E+01  0.1000000000E+01  0.1429536967E+00  0.2821683626E+01 -0.5125846509E-15  0.1652387464E+02  0.6129854866E+15  0.2798296429E+01 -0.5133922360E-15  0.1655893670E+02
  0.1857046303E+01  0.1000000000E+01  0.1429536967E+00  0.1279274637E+02 -0.2461627550E-15 -0.3558521584E+01  0.6129854866E+15  0.1277749835E+02 -0.2455105161E-15 -0.3546521646E+01
  0.1742953697E+01  0.1000000000E+01  0.1429536967E+00  0.9846391812E+01  0.1876295107E-16 -0.4318151823E+01  0.6129854866E+15  0.9843173893E+01  0.1781613431E-16 -0.4308063534E+01
  0.1646988935E+01  0.1000000000E+01  0.1429536967E+00  0.8892793065E+01 -0.1516704377E-15 -0.2327344202E+01  0.6129854866E+15  0.8889343382E+01 -0.1514824279E-15 -0.2313427088E+01
  0.1600000000E+01  0.1000000000E+01  0.1429536967E+00  0.5408790531E+01 -0.2841998056E-15 -0.2032249275E+01  0.6129854866E+15  0.5427129985E+01 -0.2849005738E-15 -0.2023731756E+01
  0.2000000000E+01  0.1000000000E+01  0.2570463033E+00  0.1875594431E-01  0.1074050793E-17  0.4987257537E+02  0.6129854866E+15  0.1797126270E-01  0.1016333016E-17  0.4987622341E+02