TITLE = "Generated from ../MESH/Convergence_0000000000.hmesh and Convergence_0000006500.hsol"
VARIABLES = "x","y","z","veloT_x","veloT_y","veloT_z","slr_4","velo_x","velo_y","velo_z"
ZONE I=6, J=6, K=1, F=POINT
  0.4000000000E+00  0.1000000000E+01  0.0000000000E+00 -0.1108146560E-01  0.2738887110E-19  0.7272406453E-02  0.6868405219E+15 -0.9748945903E-02  0.2820858068E-19  0.7585802107E-02
  0.3530110648E+00  0.1000000000E+01  0.0000000000E+00 -0.1482302380E-04  0.8515359101E-20 -0.3877490150E-03  0.6868405219E+15  0.1274042045E-02  0.9040412801E-20 -0.2661126355E-03
  0.2570463033E+00  0.1000000000E+01  0.0000000000E+00  0.1533200848E-02  0.1406747232E-20  0.2330111721E-02  0.6868405219E+15  0.2325036927E-02  0.1413294175E-20  0.2324438732E-02
  0.1429536967E+00  0.1000000000E+01  0.0000000000E+00  0.8964890076E-03  0.3913465180E-21 -0.1035619371E-02  0.6868405219E+15  0.1426839691E-02  0.2832929569E-21 -0.1048543817E-02
  0.4698893521E-01  0.1000000000E+01  0.0000000000E+00  0.3213300236E-02 -0.2440312104E-20  0.1838860589E-02  0.6868405219E+15  0.3679960989E-02 -0.2205676205E-20  0.1703809612E-02
  0.0000000000E+00  0.1000000000E+01  0.0000000000E+00 -0.7411891352E-02  0.1510255158E-22  0.1939267100E-02  0.6868405219E+15 -0.7293653099E-02  0.1293594244E-22  0.1850879144E-02
  0.4000000000E+00  0.1000000000E+01  0.4698893521E-01  0.2709834270E+00  0.3326816797E-17 -0.4786079213E-01  0.6868405219E+15  0.2765218883E+00  0.3295409737E-17 -0.4336607618E-01
  0.3530110648E+00  0.1000000000E+01  0.4698893521E-01  0.1284905002E+00  0.3012423039E-17 -0.1043854456E-01  0.6868405219E+15  0.1348619184E+00  0.2941133000E-17 -0.6891682554E-02
  0.2570463033E+00  0.1000000000E+01  0.4698893521E-01  0.9795614612E-01  0.1284488511E-17 -0.1900597309E-01  0.6868405219E+15  0.1030611676E+00  0.1280599750E-17 -0.1722246878E-01
  0.1429536967E+00  0.1000000000E+01  0.4698893521E-01  0.3671295701E-02  0.4001928199E-18 -0.9107681431E-02  0.6868405219E+15  0.9102461689E-02  0.4146777207E-18 -0.9789538041E-02
  0.4698893521E-01  0.1000000000E+01  0.4698893521E-01 -0.9101087290E-03  0.9827775009E-19 -0.8106628804E-02  0.6868405219E+15  0.3619436203E-02  0.1038740205E-18 -0.1160241613E-01
  0.0000000000E+00  0.1000000000E+01  0.4698893521E-01 -0.1808525242E-01  0.1003258334E-20  0.9948431820E-03  0.6868405219E+15 -0.1792726285E-01  0.9535524431E-21  0.4936328696E-03
  0.4000000000E+00  0.1000000000E+01  0.1429536967E+00  0.6260258912E+00  0.1054840481E-16 -0.1425860264E+00  0.6868405219E+15  0.6324770718E+00  0.1063904556E-16 -0.1391251089E+00
  0.3530110648E+00  0.1000000000E+01  0.1429536967E+00  0.3564693057E+00  0.6826254815E-17 -0.1778263745E+00  0.6868405219E+15  0.3641116541E+00  0.6796098096E-17 -0.1742055966E+00
  0.2570463033E+00  0.1000000000E+01  0.1429536967E+00  0.2405718114E+00  0.3012889018E-17 -0.1113285391E+00  0.6868405219E+15  0.2476088406E+00  0.3016846813E-17 -0.1084904216E+00
  0.1429536967E+00  0.1000000000E+01  0.1429536967E+00  0.3739425488E-01  0.1236909933E-17 -0.1144587756E+00  0.6868405219E+15  0.4612665989E-01  0.1237129480E-17 -0.1145201615E+00
  0.4698893521E-01  0.1000000000E+01  0.1429536967E+00 -0.3719948881E-02  0.3356711647E-18 -0.8736597708E-02  0.6868405219E+15  0.3200044487E-02  0.3508037764E-18 -0.1217846240E-01
  0.0000000000E+00  0.1000000000E+01  0.1429536967E+00 -0.2141738510E-01  0.1714852676E-21 -0.3071102558E-02  0.6868405219E+15 -0.2149544888E-01  0.1873489523E-22 -0.3352752704E-02
  0.4000000000E+00  0.1000000000E+01  0.2570463033E+00  0.7685028594E+00  0.5121295275E-17 -0.4484103181E+00  0.6868405219E+15  0.7765133776E+00  0.5126104958E-17 -0.4442876428E+00
  0.3530110648E+00  0.1000000000E+01  0.2570463033E+00  0.5692700633E+00  0.3862125956E-17 -0.4810242770E+00  0.6868405219E+15  0.5762968517E+00  0.3908040665E-17 -0.4780021802E+00
  0.2570463033E+00  0.1000000000E+01  0.2570463033E+00  0.3383950920E+00  0.2921840902E-17 -0.3329086178E+00  0.6868405219E+15  0.3453567953E+00  0.2921103848E-17 -0.3281924589E+00
  0.1429536967E+00  0.1000000000E+01  0.2570463033E+00  0.9722512918E-01  0.2013175366E-17 -0.2928483238E+00  0.6868405219E+15  0.1103803470E+00  0.2011677163E-17 -0.2897717709E+00
  0.4698893521E-01  0.1000000000E+01  0.2570463033E+00  0.1360114363E-01  0.1210282290E-17 -0.5087276224E-01  0.6868405219E+15  0.2476745060E-01  0.1180005445E-17 -0.5321726268E-01
  0.0000000000E+00  0.1000000000E+01  0.2570463033E+00 -0.1416254100E-01 -0.4378095466E-20 -0.2939172463E-02  0.6868405219E+15 -0.1417886749E-01 -0.4089333641E-20 -0.3102252577E-02
  0.4000000000E+00  0.1000000000E+01  0.3530110648E+00  0.8473485214E+00  0.5550677931E-17 -0.7822093188E+00  0.6868405219E+15  0.8631878065E+00  0.5541018314E-17 -0.7705817048E+00
  0.3530110648E+00  0.1000000000E+01  0.3530110648E+00  0.6300510343E+00  0.4866914321E-17 -0.7728002084E+00  0.6868405219E+15  0.6388980679E+00  0.4868796179E-17 -0.7637698171E+00
  0.2570463033E+00  0.1000000000E+01  0.3530110648E+00  0.3689743470E+00  0.2935232060E-17 -0.5804569627E+00  0.6868405219E+15  0.3752737389E+00  0.2843168088E-17 -0.5741630726E+00
  0.1429536967E+00  0.1000000000E+01  0.3530110648E+00  0.1042814265E+00  0.2461956249E-17 -0.4505121900E+00  0.6868405219E+15  0.1224331577E+00  0.2439155578E-17 -0.4477760548E+00
  0.4698893521E-01  0.1000000000E+01  0.3530110648E+00  0.1670922973E-01  0.7514653341E-18 -0.1177717826E+00  0.6868405219E+15  0.3331934734E-01  0.7790275779E-18 -0.1208609805E+00
  0.0000000000E+00  0.1000000000E+01  0.3530110648E+00 -0.1417516454E-01  0.5041897139E-20 -0.3665613395E-02  0.6868405219E+15 -0.1433449040E-01  0.4845781165E-20 -0.3711063024E-02
  0.4000000000E+00  0.1000000000E+01  0.4000000000E+00  0.8496001151E+00  0.7407606379E-17 -0.9601183961E+00  0.6868405219E+15  0.8673891197E+00  0.7408474865E-17 -0.9441541197E+00
  0.3530110648E+00  0.1000000000E+01  0.4000000000E+00  0.6772011594E+00  0.6459047828E-17 -0.9369943484E+00  0.6868405219E+15  0.6888300842E+00  0.6434835792E-17 -0.9230572521E+00
  0.2570463033E+00  0.1000000000E+01  0.4000000000E+00  0.3774026800E+00  0.2678732362E-17 -0.7117570631E+00  0.6868405219E+15  0.3861299611E+00  0.2690810440E-17 -0.7059028634E+00
  0.1429536967E+00  0.1000000000E+01  0.4000000000E+00  0.1141944547E+00  0.2400607799E-17 -0.5353056509E+00  0.6868405219E+15  0.1342855782E+00  0.2414704636E-17 -0.5361198213E+00
  0.4698893521E-01  0.1000000000E+01  0.4000000000E+00  0.1332277888E-01  0.7075719907E-18 -0.1513283935E+00  0.6868405219E+15  0.3174041810E-01  0.7137742911E-18 -0.1539973772E+00
  0.0000000000E+00  0.1000000000E+01  0.4000000000E+00 -0.6498100011E-02  0.8222043139E-20 -0.5405696046E-02  0.6868405219E+15 -0.6892989096E-02  0.8002619344E-20 -0.4711883027E-02
ZONE I=6, J=6, K=1, F=POINT
  0.8000000000E+00  0.1000000000E+01  0.0000000000E+00  0.1694689632E-01 -0.8659778936E-19 -0.1126766237E-01  0.6868405219E+15  0.1946702599E-01 -0.8863334735E-19 -0.1147451271E-01
  0.7530110648E+00  0.1000000000E+01  0.0000000000E+00  0.1368861384E-02  0.6160051411E-19  0.6167810887E-02  0.6868405219E+15  0.3692891854E-02  0.1142544550E-18  0.6113545349E-02
  0.6570463033E+00  0.1000000000E+01  0.0000000000E+00 -0.7010774774E-03  0.1967143257E-19  0.4085188187E-03  0.6868405219E+15  0.1307849210E-02  0.4695331534E-19  0.4167228007E-03
  0.5429536967E+00  0.1000000000E+01  0.0000000000E+00  0.1224293341E-02  0.3821030879E-19  0.7308098358E-02  0.6868405219E+15  0.2634982518E-02  0.7495379589E-19  0.7178979604E-02
  0.4469889352E+00  0.1000000000E+01  0.0000000000E+00 -0.9522712361E-03 -0.6831211380E-20  0.7376011113E-03  0.6868405219E+15 -0.1788519676E-03  0.1719459569E-19  0.6973840784E-03
  0.4000000000E+00  0.1000000000E+01  0.0000000000E+00  0.1590309017E-01  0.3096115104E-19  0.6948642531E-02  0.6868405219E+15  0.1669606088E-01  0.3180322098E-19  0.7281104080E-02
  0.8000000000E+00  0.1000000000E+01  0.4698893521E-01  0.3795460998E+00 -0.2269236671E-16  0.7513632626E-03  0.6868405219E+15  0.3844998551E+00 -0.2274412923E-16 -0.4342344890E-03
  0.7530110648E+00  0.1000000000E+01  0.4698893521E-01  0.5674610695E+00 -0.2195105485E-16 -0.5713409176E-01  0.6868405219E+15  0.5718179937E+00 -0.2219992954E-16 -0.5669817997E-01
  0.6570463033E+00  0.1000000000E+01  0.4698893521E-01  0.3346220773E+00 -0.4011967867E-17 -0.2531444069E-01  0.6868405219E+15  0.3390355342E+00 -0.3952474492E-17 -0.2113983447E-01
  0.5429536967E+00  0.1000000000E+01  0.4698893521E-01  0.3511523464E+00  0.4654841954E-17 -0.1537482803E-01  0.6868405219E+15  0.3558232382E+00  0.4738679299E-17 -0.8933422212E-02
  0.4469889352E+00  0.1000000000E+01  0.4698893521E-01  0.2130295522E+00  0.4291629980E-17 -0.6014810256E-02  0.6868405219E+15  0.2173787978E+00  0.4260517015E-17 -0.2241260440E-03
  0.4000000000E+00  0.1000000000E+01  0.4698893521E-01  0.3134468884E+00  0.3083938086E-17 -0.4863502871E-01  0.6868405219E+15  0.3181002089E+00  0.3057089287E-17 -0.4412148157E-01
  0.8000000000E+00  0.1000000000E+01  0.1429536967E+00  0.1238641655E+01 -0.5148294351E-16 -0.3978619273E+00  0.6868405219E+15  0.1239471330E+01 -0.5143893648E-16 -0.4045745127E+00
  0.7530110648E+00  0.1000000000E+01  0.1429536967E+00  0.1508897594E+01 -0.3153685242E-16 -0.2509352011E+00  0.6868405219E+15  0.1508139340E+01 -0.3150839236E-16 -0.2550010748E+00
  0.6570463033E+00  0.1000000000E+01  0.1429536967E+00  0.1023785366E+01 -0.1736770484E-17 -0.2410668671E+00  0.6868405219E+15  0.1025152239E+01 -0.1790284353E-17 -0.2406847166E+00
  0.5429536967E+00  0.1000000000E+01  0.1429536967E+00  0.9078897292E+00  0.1068179433E-16 -0.9133623765E-01  0.6868405219E+15  0.9117610113E+00  0.1079434631E-16 -0.8919240317E-01
  0.4469889352E+00  0.1000000000E+01  0.1429536967E+00  0.5703168435E+00  0.1058875813E-16 -0.1688885473E+00  0.6868405219E+15  0.5750596529E+00  0.1053946110E-16 -0.1656344028E+00
  0.4000000000E+00  0.1000000000E+01  0.1429536967E+00  0.6772139782E+00  0.1125342413E-16 -0.1420194203E+00  0.6868405219E+15  0.6838797554E+00  0.1134965682E-16 -0.1385709366E+00
  0.8000000000E+00  0.1000000000E+01  0.2570463033E+00  0.2421887257E+01 -0.9646967886E-17 -0.1030432770E+01  0.6868405219E+15  0.2416975575E+01 -0.9661536914E-17 -0.1034287279E+01
  0.7530110648E+00  0.1000000000E+01  0.2570463033E+00  0.2251458933E+01 -0.6130322042E-17 -0.7725653233E+00  0.6868405219E+15  0.2244326224E+01 -0.6113160513E-17 -0.7738159229E+00
  0.6570463033E+00  0.1000000000E+01  0.2570463033E+00  0.1703052407E+01 -0.1008015682E-17 -0.7028485141E+00  0.6868405219E+15  0.1698918907E+01 -0.8914005602E-18 -0.6969710327E+00
  0.5429536967E+00  0.1000000000E+01  0.2570463033E+00  0.1271525290E+01  0.4578531548E-17 -0.4281076417E+00  0.6868405219E+15  0.1274717304E+01  0.4627830281E-17 -0.4157236145E+00
  0.4469889352E+00  0.1000000000E+01  0.2570463033E+00  0.8730933848E+00  0.5071783857E-17 -0.5090660617E+00  0.6868405219E+15  0.8801880032E+00  0.5164339436E-17 -0.5015619539E+00
  0.4000000000E+00  0.1000000000E+01  0.2570463033E+00  0.7995025664E+00  0.5147892160E-17 -0.4477551259E+00  0.6868405219E+15  0.8074076291E+00  0.5151550060E-17 -0.4436704831E+00
  0.8000000000E+00  0.1000000000E+01  0.3530110648E+00  0.2779719341E+01  0.4783811601E-17 -0.1626519009E+01  0.6868405219E+15  0.2769408906E+01  0.4785238238E-17 -0.1617651794E+01
  0.7530110648E+00  0.1000000000E+01  0.3530110648E+00  0.2628100166E+01  0.8822869984E-17 -0.1396470145E+01  0.6868405219E+15  0.2615939881E+01  0.8139668011E-17 -0.1385450359E+01
  0.6570463033E+00  0.1000000000E+01  0.3530110648E+00  0.2010739573E+01  0.1621846841E-17 -0.1195284540E+01  0.6868405219E+15  0.1994104790E+01  0.1884287921E-17 -0.1173567968E+01
  0.5429536967E+00  0.1000000000E+01  0.3530110648E+00  0.1461904116E+01  0.1166607738E-17 -0.8575780864E+00  0.6868405219E+15  0.1465315749E+01  0.6638331671E-18 -0.8225918588E+00
  0.4469889352E+00  0.1000000000E+01  0.3530110648E+00  0.9517069400E+00  0.5482106312E-17 -0.8516138157E+00  0.6868405219E+15  0.9749453031E+00  0.5355095702E-17 -0.8306901385E+00
  0.4000000000E+00  0.1000000000E+01  0.3530110648E+00  0.8805806622E+00  0.5529797926E-17 -0.7820191424E+00  0.6868405219E+15  0.8961447014E+00  0.5515686759E-17 -0.7703534174E+00
  0.8000000000E+00  0.1000000000E+01  0.4000000000E+00  0.2931916640E+01 -0.1858359825E-17 -0.1980518169E+01  0.6868405219E+15  0.2917878693E+01 -0.1855561731E-17 -0.1965176245E+01
  0.7530110648E+00  0.1000000000E+01  0.4000000000E+00  0.2645722944E+01  0.1198892376E-17 -0.1685790118E+01  0.6868405219E+15  0.2631792667E+01  0.1058505470E-17 -0.1668403610E+01
  0.6570463033E+00  0.1000000000E+01  0.4000000000E+00  0.2068456570E+01  0.2244326489E-17 -0.1456595165E+01  0.6868405219E+15  0.2044043925E+01  0.2224011728E-17 -0.1430829676E+01
  0.5429536967E+00  0.1000000000E+01  0.4000000000E+00  0.1481859930E+01  0.8014435040E-17 -0.1115100941E+01  0.6868405219E+15  0.1485796679E+01  0.8460462501E-17 -0.1077034857E+01
  0.4469889352E+00  0.1000000000E+01  0.4000000000E+00  0.1026840376E+01  0.7817637431E-17 -0.1054569120E+01  0.6868405219E+15  0.1061498819E+01  0.8463442014E-17 -0.1030345330E+01
  0.4000000000E+00  0.1000000000E+01  0.4000000000E+00  0.8618297009E+00  0.7433085669E-17 -0.9593267321E+00  0.6868405219E+15  0.8805724249E+00  0.7430526716E-17 -0.9433945053E+00
ZONE I=6, J=6, K=1, F=POINT
  0.1200000000E+01  0.1000000000E+01  0.0000000000E+00 -0.3500540439E-01  0.5628817582E-19  0.3711660770E-01  0.6868405219E+15 -0.3206661419E-01  0.5765412095E-19  0.3714783718E-01
  0.1153011065E+01  0.1000000000E+01  0.0000000000E+00 -0.7944972967E-02 -0.3659383395E-18 -0.9433822732E-02  0.6868405219E+15 -0.5147400861E-02 -0.2364746097E-18 -0.9393215440E-02
  0.1057046303E+01  0.1000000000E+01  0.0000000000E+00 -0.2002299108E-03 -0.4028773827E-19  0.5951939170E-02  0.6868405219E+15  0.2650215746E-02  0.3242343208E-19  0.6042254297E-02
  0.9429536967E+00  0.1000000000E+01  0.0000000000E+00 -0.4064071739E-02 -0.1180673805E-21 -0.8275544449E-02  0.6868405219E+15 -0.1302213043E-02  0.1458513192E-20 -0.8268827412E-02
  0.8469889352E+00  0.1000000000E+01  0.0000000000E+00  0.2053224373E-02 -0.2315245908E-19  0.5536185078E-02  0.6868405219E+15  0.4476945480E-02 -0.2297514772E-19  0.5510987747E-02
  0.8000000000E+00  0.1000000000E+01  0.0000000000E+00 -0.2821317210E-01 -0.9637785728E-19 -0.1071451897E-01  0.6868405219E+15 -0.2606040926E-01 -0.9845855688E-19 -0.1094728625E-01
  0.1200000000E+01  0.1000000000E+01  0.4698893521E-01  0.2304188433E+01 -0.4155672015E-16 -0.2243545112E+00  0.6868405219E+15  0.2309666317E+01 -0.4178127448E-16 -0.2126254617E+00
  0.1153011065E+01  0.1000000000E+01  0.4698893521E-01  0.1607104555E+01 -0.2544590734E-16 -0.7707915263E-01  0.6868405219E+15  0.1611943394E+01 -0.2560826786E-16 -0.6790914221E-01
  0.1057046303E+01  0.1000000000E+01  0.4698893521E-01  0.1456294818E+01 -0.1160076980E-16 -0.1086472992E+00  0.6868405219E+15  0.1461452633E+01 -0.1153253759E-16 -0.1050083263E+00
  0.9429536967E+00  0.1000000000E+01  0.4698893521E-01  0.8303446261E+00 -0.1362162268E-16 -0.9172744564E-01  0.6868405219E+15  0.8354417709E+00 -0.1375775596E-16 -0.9188039000E-01
  0.8469889352E+00  0.1000000000E+01  0.4698893521E-01  0.7158954222E+00 -0.2654875448E-16 -0.8690219499E-01  0.6868405219E+15  0.7205890897E+00 -0.2675529219E-16 -0.8817617960E-01
  0.8000000000E+00  0.1000000000E+01  0.4698893521E-01  0.3185457622E+00 -0.2199232076E-16  0.2814915393E-02  0.6868405219E+15  0.3237105374E+00 -0.2205169596E-16  0.1579580337E-02
  0.1200000000E+01  0.1000000000E+01  0.1429536967E+00  0.5410069114E+01 -0.5763598594E-16 -0.6712556180E+00  0.6868405219E+15  0.5425719881E+01 -0.5791297828E-16 -0.6689863873E+00
  0.1153011065E+01  0.1000000000E+01  0.1429536967E+00  0.3941194050E+01 -0.6692579386E-16 -0.8806809852E+00  0.6868405219E+15  0.3952737787E+01 -0.6632211717E-16 -0.8810708781E+00
  0.1057046303E+01  0.1000000000E+01  0.1429536967E+00  0.3519287133E+01 -0.3610598337E-16 -0.6652221281E+00  0.6868405219E+15  0.3528878752E+01 -0.3613858076E-16 -0.6697877382E+00
  0.9429536967E+00  0.1000000000E+01  0.1429536967E+00  0.2212955225E+01 -0.3165244932E-16 -0.7699745443E+00  0.6868405219E+15  0.2220549437E+01 -0.3165408636E-16 -0.7775201754E+00
  0.8469889352E+00  0.1000000000E+01  0.1429536967E+00  0.1891794748E+01 -0.4751763658E-16 -0.4174663425E+00  0.6868405219E+15  0.1896232872E+01 -0.4758169257E-16 -0.4257751109E+00
  0.8000000000E+00  0.1000000000E+01  0.1429536967E+00  0.1155029253E+01 -0.5369642409E-16 -0.3995193630E+00  0.6868405219E+15  0.1157494831E+01 -0.5366740647E-16 -0.4061935456E+00
  0.1200000000E+01  0.1000000000E+01  0.2570463033E+00  0.5911881454E+01 -0.6426622002E-17 -0.1817075697E+01  0.6868405219E+15  0.5928813488E+01 -0.6366405793E-17 -0.1816274798E+01
  0.1153011065E+01  0.1000000000E+01  0.2570463033E+00  0.5357281588E+01 -0.3540017586E-16 -0.2078383458E+01  0.6868405219E+15  0.5373847695E+01 -0.3712444737E-16 -0.2080592965E+01
  0.1057046303E+01  0.1000000000E+01  0.2570463033E+00  0.4469663054E+01 -0.2867250123E-16 -0.1698047395E+01  0.6868405219E+15  0.4483919491E+01 -0.2865362018E-16 -0.1705927766E+01
  0.9429536967E+00  0.1000000000E+01  0.2570463033E+00  0.3430033751E+01 -0.2618540018E-16 -0.1746795863E+01  0.6868405219E+15  0.3438092937E+01 -0.2659635659E-16 -0.1757738390E+01
  0.8469889352E+00  0.1000000000E+01  0.2570463033E+00  0.2819911997E+01 -0.1116975486E-16 -0.1107705293E+01  0.6868405219E+15  0.2820192466E+01 -0.1126027090E-16 -0.1114555351E+01
  0.8000000000E+00  0.1000000000E+01  0.2570463033E+00  0.2384174043E+01 -0.9798756036E-17 -0.1033078290E+01  0.6868405219E+15  0.2379727524E+01 -0.9804832344E-17 -0.1036501259E+01
  0.1200000000E+01  0.1000000000E+01  0.3530110648E+00  0.6383487152E+01  0.3060195531E-16 -0.2994604354E+01  0.6868405219E+15  0.6405034148E+01  0.3062254172E-16 -0.2981965127E+01
  0.1153011065E+01  0.1000000000E+01  0.3530110648E+00  0.5632289352E+01  0.1290682459E-16 -0.2949102716E+01  0.6868405219E+15  0.5655649905E+01  0.1261893545E-16 -0.2939066644E+01
  0.1057046303E+01  0.1000000000E+01  0.3530110648E+00  0.4840940509E+01 -0.6080757028E-17 -0.2614978106E+01  0.6868405219E+15  0.4862760517E+01 -0.6132845234E-17 -0.2613412450E+01
  0.9429536967E+00  0.1000000000E+01  0.3530110648E+00  0.3810002763E+01 -0.1152064331E-16 -0.2426029863E+01  0.6868405219E+15  0.3816136282E+01 -0.1168930700E-16 -0.2428809585E+01
  0.8469889352E+00  0.1000000000E+01  0.3530110648E+00  0.3258156365E+01  0.1639636621E-17 -0.1817602993E+01  0.6868405219E+15  0.3249991765E+01  0.1355924312E-17 -0.1813263638E+01
  0.8000000000E+00  0.1000000000E+01  0.3530110648E+00  0.2733386590E+01  0.4838934273E-17 -0.1626825393E+01  0.6868405219E+15  0.2723953386E+01  0.4844786579E-17 -0.1617978755E+01
  0.1200000000E+01  0.1000000000E+01  0.4000000000E+00  0.6177338018E+01  0.3449510435E-16 -0.3320764646E+01  0.6868405219E+15  0.6199229472E+01  0.3449014064E-16 -0.3310520693E+01
  0.1153011065E+01  0.1000000000E+01  0.4000000000E+00  0.5787722437E+01  0.2667851080E-16 -0.3468775554E+01  0.6868405219E+15  0.5813427755E+01  0.2699804420E-16 -0.3461159932E+01
  0.1057046303E+01  0.1000000000E+01  0.4000000000E+00  0.4853496493E+01  0.3164917702E-17 -0.3027257412E+01  0.6868405219E+15  0.4878491870E+01  0.3309055811E-17 -0.3022477563E+01
  0.9429536967E+00  0.1000000000E+01  0.4000000000E+00  0.3938903995E+01 -0.1213089837E-16 -0.2824604583E+01  0.6868405219E+15  0.3943767056E+01 -0.1218250350E-16 -0.2820731284E+01
  0.8469889352E+00  0.1000000000E+01  0.4000000000E+00  0.3266707904E+01 -0.6607133186E-17 -0.2137093726E+01  0.6868405219E+15  0.3253722291E+01 -0.6729660474E-17 -0.2127885157E+01
  0.8000000000E+00  0.1000000000E+01  0.4000000000E+00  0.2928245816E+01 -0.1838551871E-17 -0.1983963438E+01  0.6868405219E+15  0.2913892502E+01 -0.1834737840E-17 -0.1968193728E+01
ZONE I=6, J=6, K=1, F=POINT
  0.1600000000E+01  0.1000000000E+01  0.0000000000E+00  0.1249110227E+00 -0.9414350362E-18 -0.7176270911E-01  0.6868405219E+15  0.1279254383E+00 -0.1056404128E-17 -0.7160779469E-01
  0.1553011065E+01  0.1000000000E+01  0.0000000000E+00  0.5158597868E-02 -0.1060316714E-17  0.4526465328E-01  0.6868405219E+15  0.8164315292E-02 -0.1227327151E-17  0.4507999923E-01
  0.1457046303E+01  0.1000000000E+01  0.0000000000E+00 -0.1167245951E-01  0.5136267325E-20 -0.3117319740E-02  0.6868405219E+15 -0.9013320382E-02 -0.7375806538E-19 -0.3100656201E-02
  0.1342953697E+01  0.1000000000E+01  0.0000000000E+00  0.1511113505E-02  0.1948122358E-18  0.2980109339E-01  0.6868405219E+15  0.4372253013E-02  0.3526406045E-18  0.2973974787E-01
  0.1246988935E+01  0.1000000000E+01  0.0000000000E+00 -0.1104779439E-01  0.1191386030E-18 -0.8014665786E-02  0.6868405219E+15 -0.7952485439E-02  0.1348089695E-18 -0.8022732445E-02
  0.1200000000E+01  0.1000000000E+01  0.0000000000E+00  0.5460032004E-01  0.5951958210E-19  0.3714633568E-01  0.6868405219E+15  0.5779889898E-01  0.6161876060E-19  0.3720406624E-01
  0.1600000000E+01  0.1000000000E+01  0.4698893521E-01  0.2981065345E+01 -0.8715439145E-16  0.2243109830E+00  0.6868405219E+15  0.2980069043E+01 -0.8714505800E-16  0.2484823151E+00
  0.1553011065E+01  0.1000000000E+01  0.4698893521E-01  0.3507424564E+01 -0.4382452489E-16 -0.2793266750E+00  0.6868405219E+15  0.3507637068E+01 -0.4384230292E-16 -0.2563609149E+00
  0.1457046303E+01  0.1000000000E+01  0.4698893521E-01  0.2582042249E+01 -0.4155917312E-17 -0.9736843714E-01  0.6868405219E+15  0.2584135557E+01 -0.4188273565E-17 -0.7741871429E-01
  0.1342953697E+01  0.1000000000E+01  0.4698893521E-01  0.2612462539E+01  0.2833312534E-16 -0.7715409327E-01  0.6868405219E+15  0.2615386207E+01  0.2836658649E-16 -0.6224032684E-01
  0.1246988935E+01  0.1000000000E+01  0.4698893521E-01  0.2038826190E+01 -0.7525961115E-17 -0.4955120940E-01  0.6868405219E+15  0.2042350105E+01 -0.7376931803E-17 -0.3650717438E-01
  0.1200000000E+01  0.1000000000E+01  0.4698893521E-01  0.2403340367E+01 -0.4579617027E-16 -0.2300602608E+00  0.6868405219E+15  0.2406686505E+01 -0.4599238827E-16 -0.2179293638E+00
  0.1600000000E+01  0.1000000000E+01  0.1429536967E+00  0.6429181801E+01 -0.2683179452E-15 -0.1739775803E+01  0.6868405219E+15  0.6415428016E+01 -0.2681187614E-15 -0.1703435523E+01
  0.1553011065E+01  0.1000000000E+01  0.1429536967E+00  0.8178342453E+01 -0.1417008690E-15 -0.9037000823E+00  0.6868405219E+15  0.8183443538E+01 -0.1422687864E-15 -0.8702562977E+00
  0.1457046303E+01  0.1000000000E+01  0.1429536967E+00  0.6213003167E+01  0.2958335126E-16 -0.9031229173E+00  0.6868405219E+15  0.6223685592E+01  0.3008591080E-16 -0.8801781282E+00
  0.1342953697E+01  0.1000000000E+01  0.1429536967E+00  0.6229975827E+01  0.9903356980E-16 -0.2220745151E+00  0.6868405219E+15  0.6238714620E+01  0.9937890032E-16 -0.2101712358E+00
  0.1246988935E+01  0.1000000000E+01  0.1429536967E+00  0.4869860558E+01  0.2690150841E-16 -0.7972478158E+00  0.6868405219E+15  0.4878181653E+01  0.2639961084E-16 -0.7915952227E+00
  0.1200000000E+01  0.1000000000E+01  0.1429536967E+00  0.5578434057E+01 -0.6183148669E-16 -0.6656796606E+00  0.6868405219E+15  0.5582663130E+01 -0.6198342818E-16 -0.6641887529E+00
  0.1600000000E+01  0.1000000000E+01  0.2570463033E+00  0.1151784724E+02  0.1034747282E-15 -0.3451156882E+01  0.6868405219E+15  0.1153339505E+02  0.1034462222E-15 -0.3427229513E+01
  0.1553011065E+01  0.1000000000E+01  0.2570463033E+00  0.1050637907E+02  0.1251515814E-15 -0.2371684807E+01  0.6868405219E+15  0.1052681434E+02  0.1254303102E-15 -0.2346836086E+01
  0.1457046303E+01  0.1000000000E+01  0.2570463033E+00  0.9235903699E+01  0.1811072524E-15 -0.2290633917E+01  0.6868405219E+15  0.9259378426E+01  0.1823497046E-15 -0.2276087807E+01
  0.1342953697E+01  0.1000000000E+01  0.2570463033E+00  0.7656649120E+01  0.1287588373E-15 -0.1236224983E+01  0.6868405219E+15  0.7675202791E+01  0.1297965280E-15 -0.1229260725E+01
  0.1246988935E+01  0.1000000000E+01  0.2570463033E+00  0.6403360119E+01  0.4024179714E-16 -0.2034351574E+01  0.6868405219E+15  0.6419138247E+01  0.4107283692E-16 -0.2031203754E+01
  0.1200000000E+01  0.1000000000E+01  0.2570463033E+00  0.5952594155E+01 -0.6686750064E-17 -0.1807244221E+01  0.6868405219E+15  0.5969191818E+01 -0.6628057570E-17 -0.1809359297E+01
  0.1600000000E+01  0.1000000000E+01  0.3530110648E+00  0.1014161342E+02  0.2077213711E-15 -0.3836875434E+01  0.6868405219E+15  0.1015141124E+02  0.2075772325E-15 -0.3819119423E+01
  0.1553011065E+01  0.1000000000E+01  0.3530110648E+00  0.1039252278E+02  0.2088613286E-15 -0.3779633771E+01  0.6868405219E+15  0.1041864787E+02  0.2090201896E-15 -0.3763057224E+01
  0.1457046303E+01  0.1000000000E+01  0.3530110648E+00  0.9268095882E+01  0.1927002733E-15 -0.3442311640E+01  0.6868405219E+15  0.9297250834E+01  0.1941792507E-15 -0.3427632153E+01
  0.1342953697E+01  0.1000000000E+01  0.3530110648E+00  0.8023529006E+01  0.1436684743E-15 -0.2764349676E+01  0.6868405219E+15  0.8044155959E+01  0.1441874941E-15 -0.2750078598E+01
  0.1246988935E+01  0.1000000000E+01  0.3530110648E+00  0.6598702445E+01  0.6110936044E-16 -0.3026540849E+01  0.6868405219E+15  0.6617918790E+01  0.6048557691E-16 -0.3012348359E+01
  0.1200000000E+01  0.1000000000E+01  0.3530110648E+00  0.6461614705E+01  0.3071675506E-16 -0.2994894695E+01  0.6868405219E+15  0.6479667471E+01  0.3070613465E-16 -0.2982001429E+01
  0.1600000000E+01  0.1000000000E+01  0.4000000000E+00  0.1037733733E+02  0.2088963500E-15 -0.4503446948E+01  0.6868405219E+15  0.1039050729E+02  0.2087941787E-15 -0.4501068060E+01
  0.1553011065E+01  0.1000000000E+01  0.4000000000E+00  0.9776799024E+01  0.2205012159E-15 -0.3769945404E+01  0.6868405219E+15  0.9804115051E+01  0.2201290118E-15 -0.3762501175E+01
  0.1457046303E+01  0.1000000000E+01  0.4000000000E+00  0.9229229493E+01  0.1851959676E-15 -0.3966167088E+01  0.6868405219E+15  0.9257109828E+01  0.1850741979E-15 -0.3953389057E+01
  0.1342953697E+01  0.1000000000E+01  0.4000000000E+00  0.7837122523E+01  0.1478990085E-15 -0.3174877772E+01  0.6868405219E+15  0.7859276457E+01  0.1492187541E-15 -0.3162420225E+01
  0.1246988935E+01  0.1000000000E+01  0.4000000000E+00  0.6779643811E+01  0.5896148597E-16 -0.3606649790E+01  0.6868405219E+15  0.6798664654E+01  0.5870210245E-16 -0.3595326517E+01
  0.1200000000E+01  0.1000000000E+01  0.4000000000E+00  0.6150803091E+01  0.3474903107E-16 -0.3308358809E+01  0.6868405219E+15  0.6174120817E+01  0.3473261952E-16 -0.3301002432E+01
ZONE I=6, J=6, K=1, F=POINT
  0.2000000000E+01  0.1000000000E+01  0.0000000000E+00  0.2401140390E+01  0.7211002644E-19  0.2123320853E+02  0.6868405218E+15  0.2429179313E+01  0.9344379204E-19  0.2215450435E+02
  0.1953011065E+01  0.1000000000E+01  0.0000000000E+00  0.1285584858E+01 -0.3717282047E-16 -0.1386045823E+00  0.6868405219E+15  0.1293088021E+01 -0.3600901731E-16 -0.1514787769E+00
  0.1857046303E+01  0.1000000000E+01  0.0000000000E+00 -0.3141888667E+00 -0.1921549524E-16  0.1523401975E+00  0.6868405219E+15 -0.3105153434E+00 -0.1946441955E-16  0.1507564927E+00
  0.1742953697E+01  0.1000000000E+01  0.0000000000E+00  0.1278609282E+00  0.1918829355E-18 -0.3717190452E-01  0.6868405219E+15  0.1325439470E+00  0.8946521879E-19 -0.3687114587E-01
  0.1646988935E+01  0.1000000000E+01  0.0000000000E+00 -0.1337377724E+00  0.3275913785E-18  0.6063238434E-01  0.6868405219E+15 -0.1289130166E+00  0.2798443821E-18  0.5967285080E-01
  0.1600000000E+01  0.1000000000E+01  0.0000000000E+00  0.8321877187E-01 -0.1019862168E-17 -0.8379649601E-01  0.6868405219E+15  0.8600692722E-01 -0.1136807575E-17 -0.8229644062E-01
  0.2000000000E+01  0.1000000000E+01  0.4698893521E-01 -0.1384617886E-01  0.7500377074E-18  0.4847607003E+02  0.6868405219E+15 -0.5644639477E-01  0.6841442861E-18  0.4865464679E+02
  0.1953011065E+01  0.1000000000E+01  0.4698893521E-01  0.1093849464E+02  0.1351769008E-15  0.1443398088E+01  0.6868405219E+15  0.1092417061E+02  0.1339493656E-15  0.1459696740E+01
  0.1857046303E+01  0.1000000000E+01  0.4698893521E-01  0.1158038254E+02  0.2848739153E-15 -0.1920531153E+01  0.6868405219E+15  0.1157881794E+02  0.2849287160E-15 -0.1911912496E+01
  0.1742953697E+01  0.1000000000E+01  0.4698893521E-01  0.5680414436E+01 -0.4290194658E-16 -0.6669235415E+00  0.6868405219E+15  0.5682535813E+01 -0.4254701656E-16 -0.6506127699E+00
  0.1646988935E+01  0.1000000000E+01  0.4698893521E-01  0.4420227686E+01 -0.1205731087E-15 -0.6381795038E+00  0.6868405219E+15  0.4419809716E+01 -0.1207770112E-15 -0.6130306554E+00
  0.1600000000E+01  0.1000000000E+01  0.4698893521E-01  0.2816662841E+01 -0.8430817977E-16  0.2101662371E+00  0.6868405219E+15  0.2825238202E+01 -0.8412602658E-16  0.2290253543E+00
  0.2000000000E+01  0.1000000000E+01  0.1429536967E+00 -0.2819125397E+00  0.2735031553E-17  0.5049466763E+02  0.6868405219E+15 -0.2576435091E+00  0.2776207930E-17  0.5043690907E+02
  0.1953011065E+01  0.1000000000E+01  0.1429536967E+00  0.2764378301E+01 -0.5120312611E-15  0.1632332995E+02  0.6868405219E+15  0.2746565097E+01 -0.5123182211E-15  0.1635978380E+02
  0.1857046303E+01  0.1000000000E+01  0.1429536967E+00  0.1264737455E+02 -0.2631055736E-15 -0.3702194561E+01  0.6868405219E+15  0.1262877145E+02 -0.2622069711E-15 -0.3688896857E+01
  0.1742953697E+01  0.1000000000E+01  0.1429536967E+00  0.9923502294E+01 -0.3632327992E-16 -0.4078070811E+01  0.6868405219E+15  0.9910295166E+01 -0.3808712214E-16 -0.4052798110E+01
  0.1646988935E+01  0.1000000000E+01  0.1429536967E+00  0.9345444207E+01 -0.1619065247E-15 -0.2012239057E+01  0.6868405219E+15  0.9343476691E+01 -0.1618623820E-15 -0.1973843621E+01
  0.1600000000E+01  0.1000000000E+01  0.1429536967E+00  0.6055949861E+01 -0.2850053638E-15 -0.1740053579E+01  0.6868405219E+15  0.6083340562E+01 -0.2851293910E-15 -0.1708112224E+01
  0.2000000000E+01  0.1000000000E+01  0.2570463033E+00  0.1878269449E-01  0.1129215051E-17  0.4986456516E+02  0.6868405219E+15  0.1780982904E-01  0.1104581138E-17  0.4987498377E+02