TITLE = "Generated from ../MESH/Convergence_0000000000.hmesh and Convergence_0000005700.hsol"
VARIABLES = "x","y","z","veloT_x","veloT_y","veloT_z","slr_4","velo_x","velo_y","velo_z"
ZONE I=6, J=6, K=1, F=POINT
  0.4000000000E+00  0.1000000000E+01  0.0000000000E+00 -0.1167204986E-01  0.2804180681E-19  0.7720336151E-02  0.6770252365E+15 -0.1154325190E-01  0.2825617092E-19  0.7324007068E-02
  0.3530110648E+00  0.1000000000E+01  0.0000000000E+00 -0.1254909730E-02  0.7347847610E-20 -0.2679707456E-03  0.6770252365E+15 -0.1136725882E-02  0.7911886171E-20 -0.3857675786E-03
  0.2570463033E+00  0.1000000000E+01  0.0000000000E+00  0.1672670243E-03  0.5239884030E-21  0.2416991514E-02  0.6770252365E+15  0.1891271381E-03  0.8356447842E-21  0.2408550772E-02
  0.1429536967E+00  0.1000000000E+01  0.0000000000E+00 -0.4984839809E-03  0.5348789548E-22 -0.1016131096E-02  0.6770252365E+15 -0.5930662813E-03  0.1480329012E-21 -0.1051271866E-02
  0.4698893521E-01  0.1000000000E+01  0.0000000000E+00  0.2145684983E-02 -0.2425885475E-20  0.2017538245E-02  0.6770252365E+15  0.2092026377E-02 -0.2453744385E-20  0.1992296767E-02
  0.0000000000E+00  0.1000000000E+01  0.0000000000E+00 -0.7498503457E-02  0.1271573173E-22  0.2054477400E-02  0.6770252365E+15 -0.7520578186E-02  0.1298603496E-22  0.2033637672E-02
  0.4000000000E+00  0.1000000000E+01  0.4698893521E-01  0.2698895671E+00  0.3197562978E-17 -0.3431895683E-01  0.6770252365E+15  0.2703606046E+00  0.3195153992E-17 -0.2493999154E-01
  0.3530110648E+00  0.1000000000E+01  0.4698893521E-01  0.1286176842E+00  0.2874920175E-17  0.1334903117E-02  0.6770252365E+15  0.1300563516E+00  0.2850557458E-17  0.9214927044E-02
  0.2570463033E+00  0.1000000000E+01  0.4698893521E-01  0.9925095073E-01  0.1220064820E-17 -0.1292925749E-01  0.6770252365E+15  0.1005031546E+00  0.1222244228E-17 -0.1035730181E-01
  0.1429536967E+00  0.1000000000E+01  0.4698893521E-01  0.4679589504E-02  0.3651731309E-18 -0.8610976164E-02  0.6770252365E+15  0.4905446210E-02  0.3657888292E-18 -0.8682860034E-02
  0.4698893521E-01  0.1000000000E+01  0.4698893521E-01 -0.1040302758E-02  0.8690970478E-19 -0.8559508163E-02  0.6770252365E+15 -0.8014568313E-03  0.8713027954E-19 -0.8659420703E-02
  0.0000000000E+00  0.1000000000E+01  0.4698893521E-01 -0.1808398240E-01  0.9478068874E-21  0.2057344380E-02  0.6770252365E+15 -0.1807376010E-01  0.8872021131E-21  0.2165623226E-02
  0.4000000000E+00  0.1000000000E+01  0.1429536967E+00  0.6187756747E+00  0.1032804516E-16 -0.1123020967E+00  0.6770252365E+15  0.6190361793E+00  0.1033016369E-16 -0.1137315107E+00
  0.3530110648E+00  0.1000000000E+01  0.1429536967E+00  0.3562011669E+00  0.6417742726E-17 -0.1518914479E+00  0.6770252365E+15  0.3593501629E+00  0.6418583711E-17 -0.1521717352E+00
  0.2570463033E+00  0.1000000000E+01  0.1429536967E+00  0.2467129681E+00  0.2831474827E-17 -0.9782003089E-01  0.6770252365E+15  0.2505152296E+00  0.2833832396E-17 -0.9591331167E-01
  0.1429536967E+00  0.1000000000E+01  0.1429536967E+00  0.4101214850E-01  0.1135130111E-17 -0.1115942949E+00  0.6770252365E+15  0.4251944244E-01  0.1135895133E-17 -0.1107215578E+00
  0.4698893521E-01  0.1000000000E+01  0.1429536967E+00 -0.4228411844E-02  0.2982683329E-18 -0.8426605748E-02  0.6770252365E+15 -0.3853225638E-02  0.2981089950E-18 -0.8404180301E-02
  0.0000000000E+00  0.1000000000E+01  0.1429536967E+00 -0.2145561589E-01 -0.1514415765E-21 -0.1451092289E-02  0.6770252365E+15 -0.2143884365E-01 -0.1723663970E-21 -0.1311794609E-02
  0.4000000000E+00  0.1000000000E+01  0.2570463033E+00  0.7509578432E+00  0.4699295880E-17 -0.3971754816E+00  0.6770252365E+15  0.7491440897E+00  0.4698890715E-17 -0.4139627671E+00
  0.3530110648E+00  0.1000000000E+01  0.2570463033E+00  0.5650730551E+00  0.3855046815E-17 -0.4366257364E+00  0.6770252365E+15  0.5613829906E+00  0.3643990417E-17 -0.4513519753E+00
  0.2570463033E+00  0.1000000000E+01  0.2570463033E+00  0.3478370962E+00  0.2671428618E-17 -0.3035745347E+00  0.6770252365E+15  0.3473962903E+00  0.2674235912E-17 -0.3126725551E+00
  0.1429536967E+00  0.1000000000E+01  0.2570463033E+00  0.1049703689E+00  0.1881141601E-17 -0.2811983900E+00  0.6770252365E+15  0.1057178173E+00  0.1882536099E-17 -0.2852750350E+00
  0.4698893521E-01  0.1000000000E+01  0.2570463033E+00  0.1473358583E-01  0.1186284806E-17 -0.4900636831E-01  0.6770252365E+15  0.1328906785E-01  0.1187968716E-17 -0.4887974506E-01
  0.0000000000E+00  0.1000000000E+01  0.2570463033E+00 -0.1422388817E-01 -0.3664395945E-20 -0.1034993830E-02  0.6770252365E+15 -0.1423709493E-01 -0.3961011716E-20 -0.7299356513E-03
  0.4000000000E+00  0.1000000000E+01  0.3530110648E+00  0.8245818845E+00  0.5215526653E-17 -0.6975354453E+00  0.6770252365E+15  0.8193594092E+00  0.5218000186E-17 -0.7208230128E+00
  0.3530110648E+00  0.1000000000E+01  0.3530110648E+00  0.6210809744E+00  0.4614093937E-17 -0.6976685776E+00  0.6770252365E+15  0.6138002524E+00  0.4607623582E-17 -0.7185573614E+00
  0.2570463033E+00  0.1000000000E+01  0.3530110648E+00  0.3813539951E+00  0.2338402616E-17 -0.5271070347E+00  0.6770252365E+15  0.3762114302E+00  0.2581924503E-17 -0.5439622031E+00
  0.1429536967E+00  0.1000000000E+01  0.3530110648E+00  0.1215392722E+00  0.2279218922E-17 -0.4278990604E+00  0.6770252365E+15  0.1149861231E+00  0.2345293917E-17 -0.4355834109E+00
  0.4698893521E-01  0.1000000000E+01  0.3530110648E+00  0.2267821850E-01  0.7126568793E-18 -0.1139330925E+00  0.6770252365E+15  0.1620059078E-01  0.7070432406E-18 -0.1133082799E+00
  0.0000000000E+00  0.1000000000E+01  0.3530110648E+00 -0.1443331084E-01  0.5887766582E-20 -0.1329688985E-02  0.6770252365E+15 -0.1423530864E-01  0.5607839527E-20 -0.7132639372E-03
  0.4000000000E+00  0.1000000000E+01  0.4000000000E+00  0.8239434373E+00  0.7257548639E-17 -0.8511596990E+00  0.6770252365E+15  0.8141354091E+00  0.7262972453E-17 -0.8859909824E+00
  0.3530110648E+00  0.1000000000E+01  0.4000000000E+00  0.6663251070E+00  0.6196176692E-17 -0.8388642297E+00  0.6770252365E+15  0.6552648618E+00  0.6254357329E-17 -0.8668379780E+00
  0.2570463033E+00  0.1000000000E+01  0.4000000000E+00  0.3944843786E+00  0.2805571242E-17 -0.6457433368E+00  0.6770252365E+15  0.3856179948E+00  0.2758652675E-17 -0.6600293436E+00
  0.1429536967E+00  0.1000000000E+01  0.4000000000E+00  0.1384928700E+00  0.2544533225E-17 -0.5086253129E+00  0.6770252365E+15  0.1276766101E+00  0.2495852345E-17 -0.5120523037E+00
  0.4698893521E-01  0.1000000000E+01  0.4000000000E+00  0.2199891510E-01  0.6938780558E-18 -0.1452433792E+00  0.6770252365E+15  0.1336091840E-01  0.6888148412E-18 -0.1442794035E+00
  0.0000000000E+00  0.1000000000E+01  0.4000000000E+00 -0.7157031077E-02  0.8062946385E-20 -0.2929744126E-02  0.6770252365E+15 -0.6583710554E-02  0.8071724320E-20 -0.2325860741E-02
ZONE I=6, J=6, K=1, F=POINT
  0.8000000000E+00  0.1000000000E+01  0.0000000000E+00  0.1773588606E-01 -0.8691377686E-19 -0.1155909485E-01  0.6770252365E+15  0.1879089602E-01 -0.8812017732E-19 -0.1124427059E-01
  0.7530110648E+00  0.1000000000E+01  0.0000000000E+00  0.1797000398E-02  0.6918588196E-19  0.5971826469E-02  0.6770252365E+15  0.2900179379E-02  0.9784596068E-19  0.6050194112E-02
  0.6570463033E+00  0.1000000000E+01  0.0000000000E+00 -0.6295583538E-03  0.1995213570E-19  0.3378038408E-03  0.6770252365E+15  0.9497419540E-04  0.2942375944E-19  0.2954743946E-03
  0.5429536967E+00  0.1000000000E+01  0.0000000000E+00  0.1089388956E-02  0.3339236684E-19  0.7016188770E-02  0.6770252365E+15  0.1356701472E-02  0.4093755764E-19  0.7030838252E-02
  0.4469889352E+00  0.1000000000E+01  0.0000000000E+00 -0.1371459177E-02 -0.2228045558E-19  0.6370265830E-03  0.6770252365E+15 -0.1179422692E-02 -0.1506411683E-19  0.5276693204E-03
  0.4000000000E+00  0.1000000000E+01  0.0000000000E+00  0.1528184759E-01  0.3166489855E-19  0.7430982167E-02  0.6770252365E+15  0.1546242322E-01  0.3192217335E-19  0.7014751595E-02
  0.8000000000E+00  0.1000000000E+01  0.4698893521E-01  0.3583877953E+00 -0.2305026176E-16  0.9265964899E-02  0.6770252365E+15  0.3622083152E+00 -0.2308997310E-16  0.1653925964E-01
  0.7530110648E+00  0.1000000000E+01  0.4698893521E-01  0.5475826834E+00 -0.2237912296E-16 -0.4775782386E-01  0.6770252365E+15  0.5509469530E+00 -0.2257729815E-16 -0.4148788257E-01
  0.6570463033E+00  0.1000000000E+01  0.4698893521E-01  0.3205503583E+00 -0.4219951529E-17 -0.1375207892E-01  0.6770252365E+15  0.3223313334E+00 -0.4191677169E-17 -0.8607843816E-02
  0.5429536967E+00  0.1000000000E+01  0.4698893521E-01  0.3432819161E+00  0.4524373806E-17 -0.1533067689E-02  0.6770252365E+15  0.3438549614E+00  0.4538478210E-17  0.4904540805E-02
  0.4469889352E+00  0.1000000000E+01  0.4698893521E-01  0.2089660483E+00  0.4142137077E-17  0.9015542374E-02  0.6770252365E+15  0.2097728812E+00  0.4129770686E-17  0.1784065507E-01
  0.4000000000E+00  0.1000000000E+01  0.4698893521E-01  0.3118762558E+00  0.2957313547E-17 -0.3509553867E-01  0.6770252365E+15  0.3127808979E+00  0.2951697148E-17 -0.2569961241E-01
  0.8000000000E+00  0.1000000000E+01  0.1429536967E+00  0.1164696316E+01 -0.5246838566E-16 -0.3688339217E+00  0.6770252365E+15  0.1172246891E+01 -0.5224127759E-16 -0.3629267543E+00
  0.7530110648E+00  0.1000000000E+01  0.1429536967E+00  0.1442759991E+01 -0.3256999830E-16 -0.2208027802E+00  0.6770252365E+15  0.1449812536E+01 -0.3264163268E-16 -0.2175800778E+00
  0.6570463033E+00  0.1000000000E+01  0.1429536967E+00  0.9741442291E+00 -0.2397037147E-17 -0.2096915223E+00  0.6770252365E+15  0.9776908879E+00 -0.2540672253E-17 -0.2110770597E+00
  0.5429536967E+00  0.1000000000E+01  0.1429536967E+00  0.8751269990E+00  0.1017647105E-16 -0.5878923733E-01  0.6770252365E+15  0.8741331648E+00  0.1014654428E-16 -0.6166014576E-01
  0.4469889352E+00  0.1000000000E+01  0.1429536967E+00  0.5526216593E+00  0.1010590263E-16 -0.1360883654E+00  0.6770252365E+15  0.5514651564E+00  0.1012491717E-16 -0.1380748974E+00
  0.4000000000E+00  0.1000000000E+01  0.1429536967E+00  0.6703467484E+00  0.1103842894E-16 -0.1117395488E+00  0.6770252365E+15  0.6706286650E+00  0.1104198878E-16 -0.1131812173E+00
  0.8000000000E+00  0.1000000000E+01  0.2570463033E+00  0.2286395934E+01 -0.1101305468E-16 -0.9589966307E+00  0.6770252365E+15  0.2302826929E+01 -0.1098483961E-16 -0.9607553135E+00
  0.7530110648E+00  0.1000000000E+01  0.2570463033E+00  0.2131782168E+01 -0.6918385666E-17 -0.7007572838E+00  0.6770252365E+15  0.2148063122E+01 -0.7091433944E-17 -0.7072921207E+00
  0.6570463033E+00  0.1000000000E+01  0.2570463033E+00  0.1610893160E+01 -0.1846345346E-17 -0.6301784883E+00  0.6770252365E+15  0.1618632677E+01 -0.2050870901E-17 -0.6430240270E+00
  0.5429536967E+00  0.1000000000E+01  0.2570463033E+00  0.1209602709E+01  0.3871362443E-17 -0.3593646386E+00  0.6770252365E+15  0.1209737257E+01  0.3877500927E-17 -0.3737709727E+00
  0.4469889352E+00  0.1000000000E+01  0.2570463033E+00  0.8388151398E+00  0.4974439472E-17 -0.4505137144E+00  0.6770252365E+15  0.8385005618E+00  0.4760802836E-17 -0.4670165731E+00
  0.4000000000E+00  0.1000000000E+01  0.2570463033E+00  0.7817597895E+00  0.4725061685E-17 -0.3965099272E+00  0.6770252365E+15  0.7803218502E+00  0.4724850929E-17 -0.4133447424E+00
  0.8000000000E+00  0.1000000000E+01  0.3530110648E+00  0.2599368952E+01  0.3920016486E-17 -0.1504840224E+01  0.6770252365E+15  0.2626171427E+01  0.3887686118E-17 -0.1513106285E+01
  0.7530110648E+00  0.1000000000E+01  0.3530110648E+00  0.2465830614E+01  0.7893023637E-17 -0.1274723136E+01  0.6770252365E+15  0.2493312181E+01  0.9401263241E-17 -0.1288996150E+01
  0.6570463033E+00  0.1000000000E+01  0.3530110648E+00  0.1881201410E+01  0.5638108244E-18 -0.1073764028E+01  0.6770252365E+15  0.1891885458E+01  0.5525183870E-18 -0.1097221867E+01
  0.5429536967E+00  0.1000000000E+01  0.3530110648E+00  0.1379037166E+01  0.2642682848E-18 -0.7405091919E+00  0.6770252365E+15  0.1379502374E+01  0.4433929337E-18 -0.7640395546E+00
  0.4469889352E+00  0.1000000000E+01  0.3530110648E+00  0.9116563542E+00  0.4721485788E-17 -0.7541762574E+00  0.6770252365E+15  0.9134431444E+00  0.4944850830E-17 -0.7784967302E+00
  0.4000000000E+00  0.1000000000E+01  0.3530110648E+00  0.8578844803E+00  0.5194913503E-17 -0.6973321387E+00  0.6770252365E+15  0.8524603474E+00  0.5199665522E-17 -0.7206072289E+00
  0.8000000000E+00  0.1000000000E+01  0.4000000000E+00  0.2729772945E+01 -0.2030778970E-17 -0.1834420959E+01  0.6770252365E+15  0.2761382927E+01 -0.2031856413E-17 -0.1848644831E+01
  0.7530110648E+00  0.1000000000E+01  0.4000000000E+00  0.2466050614E+01  0.6800726340E-18 -0.1538662024E+01  0.6770252365E+15  0.2500995698E+01  0.9886025202E-18 -0.1559593239E+01
  0.6570463033E+00  0.1000000000E+01  0.4000000000E+00  0.1921810422E+01  0.2192683934E-17 -0.1313070382E+01  0.6770252365E+15  0.1935353089E+01  0.2142777908E-17 -0.1348064513E+01
  0.5429536967E+00  0.1000000000E+01  0.4000000000E+00  0.1388457952E+01  0.8200410883E-17 -0.9743355768E+00  0.6770252365E+15  0.1388520826E+01  0.7803531643E-17 -0.1013597259E+01
  0.4469889352E+00  0.1000000000E+01  0.4000000000E+00  0.9863179460E+00  0.7914793117E-17 -0.9319732588E+00  0.6770252365E+15  0.9877876101E+00  0.8103100360E-17 -0.9702843285E+00
  0.4000000000E+00  0.1000000000E+01  0.4000000000E+00  0.8366670800E+00  0.7279555559E-17 -0.8503730327E+00  0.6770252365E+15  0.8262679970E+00  0.7282963910E-17 -0.8852668389E+00
ZONE I=6, J=6, K=1, F=POINT
  0.1200000000E+01  0.1000000000E+01  0.0000000000E+00 -0.3282353277E-01  0.5607401197E-19  0.3658701695E-01  0.6770252365E+15 -0.3096117242E-01  0.5826704025E-19  0.3592388702E-01
  0.1153011065E+01  0.1000000000E+01  0.0000000000E+00 -0.6333759937E-02 -0.2854074103E-18 -0.9593378196E-02  0.6770252365E+15 -0.4319073921E-02 -0.1984937973E-18 -0.9714138337E-02
  0.1057046303E+01  0.1000000000E+01  0.0000000000E+00  0.1354699063E-02 -0.1327882822E-20  0.6014682342E-02  0.6770252365E+15  0.3197388032E-02  0.4538140809E-19  0.6003621646E-02
  0.9429536967E+00  0.1000000000E+01  0.0000000000E+00 -0.2245621367E-02  0.3529766364E-21 -0.8285981184E-02  0.6770252365E+15 -0.9410021483E-03  0.1574761817E-20 -0.8296036616E-02
  0.8469889352E+00  0.1000000000E+01  0.0000000000E+00  0.3424849681E-02 -0.2328268167E-19  0.5407535396E-02  0.6770252365E+15  0.4438661037E-02 -0.2513326077E-19  0.5430225769E-02
  0.8000000000E+00  0.1000000000E+01  0.0000000000E+00 -0.2736153256E-01 -0.9665551380E-19 -0.1104936360E-01  0.6770252365E+15 -0.2652600555E-01 -0.9788073155E-19 -0.1073045102E-01
  0.1200000000E+01  0.1000000000E+01  0.4698893521E-01  0.2263987358E+01 -0.4168744965E-16 -0.2081166612E+00  0.6770252365E+15  0.2268947285E+01 -0.4188531115E-16 -0.2012277364E+00
  0.1153011065E+01  0.1000000000E+01  0.4698893521E-01  0.1570491619E+01 -0.2580203699E-16 -0.6250564928E-01  0.6770252365E+15  0.1573263137E+01 -0.2589651219E-16 -0.5529053813E-01
  0.1057046303E+01  0.1000000000E+01  0.4698893521E-01  0.1421636669E+01 -0.1190548304E-16 -0.9981989318E-01  0.6770252365E+15  0.1424987130E+01 -0.1185054029E-16 -0.9024595874E-01
  0.9429536967E+00  0.1000000000E+01  0.4698893521E-01  0.8014919379E+00 -0.1408134798E-16 -0.8371908354E-01  0.6770252365E+15  0.8054531278E+00 -0.1417983117E-16 -0.7426103620E-01
  0.8469889352E+00  0.1000000000E+01  0.4698893521E-01  0.6922422006E+00 -0.2704750860E-16 -0.7850707894E-01  0.6770252365E+15  0.6954713133E+00 -0.2719735959E-16 -0.6988706014E-01
  0.8000000000E+00  0.1000000000E+01  0.4698893521E-01  0.2975394981E+00 -0.2235228669E-16  0.1132627764E-01  0.6770252365E+15  0.3013807685E+00 -0.2239751867E-16  0.1854528995E-01
  0.1200000000E+01  0.1000000000E+01  0.1429536967E+00  0.5290889397E+01 -0.5769994371E-16 -0.6548365696E+00  0.6770252365E+15  0.5298805420E+01 -0.5777809638E-16 -0.6421714915E+00
  0.1153011065E+01  0.1000000000E+01  0.1429536967E+00  0.3828518014E+01 -0.6684800502E-16 -0.8635436162E+00  0.6770252365E+15  0.3829785899E+01 -0.6691549163E-16 -0.8496233865E+00
  0.1057046303E+01  0.1000000000E+01  0.1429536967E+00  0.3412033488E+01 -0.3708994694E-16 -0.6461219380E+00  0.6770252365E+15  0.3414582921E+01 -0.3709275498E-16 -0.6311648684E+00
  0.9429536967E+00  0.1000000000E+01  0.1429536967E+00  0.2117774954E+01 -0.3266616813E-16 -0.7474803150E+00  0.6770252365E+15  0.2123996400E+01 -0.3265487135E-16 -0.7340135885E+00
  0.8469889352E+00  0.1000000000E+01  0.1429536967E+00  0.1810871151E+01 -0.4863188388E-16 -0.3919920055E+00  0.6770252365E+15  0.1817885771E+01 -0.4883328383E-16 -0.3832083650E+00
  0.8000000000E+00  0.1000000000E+01  0.1429536967E+00  0.1080985043E+01 -0.5468499426E-16 -0.3704645889E+00  0.6770252365E+15  0.1090958092E+01 -0.5445083941E-16 -0.3645283647E+00
  0.1200000000E+01  0.1000000000E+01  0.2570463033E+00  0.5698840356E+01 -0.5486780925E-17 -0.1785272356E+01  0.6770252365E+15  0.5698115452E+01 -0.5419028492E-17 -0.1778032142E+01
  0.1153011065E+01  0.1000000000E+01  0.2570463033E+00  0.5150134158E+01 -0.3635768922E-16 -0.2038214297E+01  0.6770252365E+15  0.5148912346E+01 -0.3605036088E-16 -0.2030794116E+01
  0.1057046303E+01  0.1000000000E+01  0.2570463033E+00  0.4273562097E+01 -0.2949817224E-16 -0.1645833918E+01  0.6770252365E+15  0.4276781089E+01 -0.2950110446E-16 -0.1637400844E+01
  0.9429536967E+00  0.1000000000E+01  0.2570463033E+00  0.3254741201E+01 -0.2735809989E-16 -0.1683814716E+01  0.6770252365E+15  0.3265028501E+01 -0.2789148953E-16 -0.1677348453E+01
  0.8469889352E+00  0.1000000000E+01  0.2570463033E+00  0.2668276550E+01 -0.1236632823E-16 -0.1039010552E+01  0.6770252365E+15  0.2683198704E+01 -0.1187254270E-16 -0.1037460100E+01
  0.8000000000E+00  0.1000000000E+01  0.2570463033E+00  0.2248432021E+01 -0.1116521048E-16 -0.9616096801E+00  0.6770252365E+15  0.2265700277E+01 -0.1112884947E-16 -0.9629581836E+00
  0.1200000000E+01  0.1000000000E+01  0.3530110648E+00  0.6085212991E+01  0.3331850708E-16 -0.2947124164E+01  0.6770252365E+15  0.6088071368E+01  0.3334679880E-16 -0.2945007350E+01
  0.1153011065E+01  0.1000000000E+01  0.3530110648E+00  0.5349072072E+01  0.1452270702E-16 -0.2885674960E+01  0.6770252365E+15  0.5346774351E+01  0.1456953518E-16 -0.2884366275E+01
  0.1057046303E+01  0.1000000000E+01  0.3530110648E+00  0.4573952632E+01 -0.5958151580E-17 -0.2529014638E+01  0.6770252365E+15  0.4577174714E+01 -0.5985399959E-17 -0.2527204631E+01
  0.9429536967E+00  0.1000000000E+01  0.3530110648E+00  0.3566721239E+01 -0.1186048785E-16 -0.2317232723E+01  0.6770252365E+15  0.3580021013E+01 -0.1228263601E-16 -0.2317662667E+01
  0.8469889352E+00  0.1000000000E+01  0.3530110648E+00  0.3052743643E+01  0.2725109710E-18 -0.1697835110E+01  0.6770252365E+15  0.3073307664E+01  0.8808788012E-18 -0.1701964025E+01
  0.8000000000E+00  0.1000000000E+01  0.3530110648E+00  0.2552372197E+01  0.3980710780E-17 -0.1505138261E+01  0.6770252365E+15  0.2580367278E+01  0.3963532182E-17 -0.1513422536E+01
  0.1200000000E+01  0.1000000000E+01  0.4000000000E+00  0.5842289179E+01  0.3859907696E-16 -0.3287924783E+01  0.6770252365E+15  0.5844773583E+01  0.3860974506E-16 -0.3282396417E+01
  0.1153011065E+01  0.1000000000E+01  0.4000000000E+00  0.5469442742E+01  0.3019664880E-16 -0.3418210583E+01  0.6770252365E+15  0.5467258763E+01  0.3009731105E-16 -0.3413726632E+01
  0.1057046303E+01  0.1000000000E+01  0.4000000000E+00  0.4551454105E+01  0.5151073290E-17 -0.2937650342E+01  0.6770252365E+15  0.4555747554E+01  0.5130557526E-17 -0.2937418775E+01
  0.9429536967E+00  0.1000000000E+01  0.4000000000E+00  0.3663381031E+01 -0.1088471250E-16 -0.2702039418E+01  0.6770252365E+15  0.3677995618E+01 -0.1126914317E-16 -0.2705381309E+01
  0.8469889352E+00  0.1000000000E+01  0.4000000000E+00  0.3035702186E+01 -0.6794869354E-17 -0.1996470067E+01  0.6770252365E+15  0.3059865910E+01 -0.6564669772E-17 -0.2005890919E+01
  0.8000000000E+00  0.1000000000E+01  0.4000000000E+00  0.2725628680E+01 -0.2007375992E-17 -0.1837811060E+01  0.6770252365E+15  0.2758404337E+01 -0.2009438048E-17 -0.1851630303E+01
ZONE I=6, J=6, K=1, F=POINT
  0.1600000000E+01  0.1000000000E+01  0.0000000000E+00  0.1284687826E+00 -0.9346862214E-18 -0.7146943933E-01  0.6770252365E+15  0.1310643794E+00 -0.1046713436E-17 -0.7163125740E-01
  0.1553011065E+01  0.1000000000E+01  0.0000000000E+00  0.8454934508E-02 -0.1221689841E-17  0.4537181083E-01  0.6770252365E+15  0.1106627032E-01 -0.1371269172E-17  0.4515048530E-01
  0.1457046303E+01  0.1000000000E+01  0.0000000000E+00 -0.9029743062E-02 -0.5258817606E-19 -0.3162790306E-02  0.6770252365E+15 -0.6804727918E-02 -0.1243244270E-18 -0.3151368218E-02
  0.1342953697E+01  0.1000000000E+01  0.0000000000E+00  0.4166989173E-02  0.3398238211E-18  0.2990839128E-01  0.6770252365E+15  0.6107280228E-02  0.4492920076E-18  0.2972593183E-01
  0.1246988935E+01  0.1000000000E+01  0.0000000000E+00 -0.8397554619E-02  0.1309794795E-18 -0.8199820903E-02  0.6770252365E+15 -0.6576645976E-02  0.1422656228E-18 -0.8400329450E-02
  0.1200000000E+01  0.1000000000E+01  0.0000000000E+00  0.5675091424E-01  0.5985722885E-19  0.3662759696E-01  0.6770252365E+15  0.5877082914E-01  0.6276686966E-19  0.3594338080E-01
  0.1600000000E+01  0.1000000000E+01  0.4698893521E-01  0.2990120071E+01 -0.8729338079E-16  0.2416443307E+00  0.6770252365E+15  0.2994308220E+01 -0.8739847347E-16  0.2384775186E+00
  0.1553011065E+01  0.1000000000E+01  0.4698893521E-01  0.3505095314E+01 -0.4353915198E-16 -0.2637087325E+00  0.6770252365E+15  0.3509422789E+01 -0.4340215607E-16 -0.2671755577E+00
  0.1457046303E+01  0.1000000000E+01  0.4698893521E-01  0.2560915826E+01 -0.4064885365E-17 -0.8498113870E-01  0.6770252365E+15  0.2564393602E+01 -0.4165892307E-17 -0.8431688172E-01
  0.1342953697E+01  0.1000000000E+01  0.4698893521E-01  0.2575700369E+01  0.2855470058E-16 -0.6625249443E-01  0.6770252365E+15  0.2579683350E+01  0.2859153795E-16 -0.6113213686E-01
  0.1246988935E+01  0.1000000000E+01  0.4698893521E-01  0.1998012221E+01 -0.7331366598E-17 -0.3440145771E-01  0.6770252365E+15  0.2003007810E+01 -0.7114393273E-17 -0.2821437788E-01
  0.1200000000E+01  0.1000000000E+01  0.4698893521E-01  0.2363274934E+01 -0.4593554869E-16 -0.2138105483E+00  0.6770252365E+15  0.2366239845E+01 -0.4611022083E-16 -0.2065328067E+00
  0.1600000000E+01  0.1000000000E+01  0.1429536967E+00  0.6414566074E+01 -0.2661591911E-15 -0.1736064188E+01  0.6770252365E+15  0.6404026729E+01 -0.2658258337E-15 -0.1744869070E+01
  0.1553011065E+01  0.1000000000E+01  0.1429536967E+00  0.8140725015E+01 -0.1413047201E-15 -0.9052550668E+00  0.6770252365E+15  0.8141109137E+01 -0.1414400100E-15 -0.9119606447E+00
  0.1457046303E+01  0.1000000000E+01  0.1429536967E+00  0.6136005044E+01  0.3171571965E-16 -0.9078389305E+00  0.6770252365E+15  0.6133725542E+01  0.3138886290E-16 -0.9080483290E+00
  0.1342953697E+01  0.1000000000E+01  0.1429536967E+00  0.6116520229E+01  0.1001648879E-15 -0.2173698094E+00  0.6770252365E+15  0.6116667967E+01  0.1001935704E-15 -0.2102793481E+00
  0.1246988935E+01  0.1000000000E+01  0.1429536967E+00  0.4744369848E+01  0.2726847536E-16 -0.7817941172E+00  0.6770252365E+15  0.4747687134E+01  0.2711829127E-16 -0.7703100059E+00
  0.1200000000E+01  0.1000000000E+01  0.1429536967E+00  0.5458046790E+01 -0.6187314951E-16 -0.6493136790E+00  0.6770252365E+15  0.5453921788E+01 -0.6180838963E-16 -0.6373934247E+00
  0.1600000000E+01  0.1000000000E+01  0.2570463033E+00  0.1144705094E+02  0.1057475741E-15 -0.3503341065E+01  0.6770252365E+15  0.1145510839E+02  0.1056863711E-15 -0.3521223172E+01
  0.1553011065E+01  0.1000000000E+01  0.2570463033E+00  0.1040441376E+02  0.1282905578E-15 -0.2430743737E+01  0.6770252365E+15  0.1039879593E+02  0.1280248176E-15 -0.2440075888E+01
  0.1457046303E+01  0.1000000000E+01  0.2570463033E+00  0.9078414661E+01  0.1857775121E-15 -0.2341335967E+01  0.6770252365E+15  0.9067168590E+01  0.1850332519E-15 -0.2341152539E+01
  0.1342953697E+01  0.1000000000E+01  0.2570463033E+00  0.7449380603E+01  0.1320452976E-15 -0.1246981777E+01  0.6770252365E+15  0.7446380328E+01  0.1318601079E-15 -0.1240580784E+01
  0.1246988935E+01  0.1000000000E+01  0.2570463033E+00  0.6181180309E+01  0.4245737300E-16 -0.2011388276E+01  0.6770252365E+15  0.6182575135E+01  0.4262265277E-16 -0.2003800576E+01
  0.1200000000E+01  0.1000000000E+01  0.2570463033E+00  0.5738265737E+01 -0.5760935139E-17 -0.1775598874E+01  0.6770252365E+15  0.5737812093E+01 -0.5683134333E-17 -0.1771176985E+01
  0.1600000000E+01  0.1000000000E+01  0.3530110648E+00  0.1001381499E+02  0.2102665139E-15 -0.3956316646E+01  0.6770252365E+15  0.1000964564E+02  0.2101902117E-15 -0.3958608957E+01
  0.1553011065E+01  0.1000000000E+01  0.3530110648E+00  0.1022925603E+02  0.2131973589E-15 -0.3898723676E+01  0.6770252365E+15  0.1021474507E+02  0.2130724844E-15 -0.3900573699E+01
  0.1457046303E+01  0.1000000000E+01  0.3530110648E+00  0.9037356685E+01  0.1995927343E-15 -0.3532984572E+01  0.6770252365E+15  0.9019123842E+01  0.1983559890E-15 -0.3529957150E+01
  0.1342953697E+01  0.1000000000E+01  0.3530110648E+00  0.7732362714E+01  0.1489848439E-15 -0.2790651875E+01  0.6770252365E+15  0.7729114714E+01  0.1488396904E-15 -0.2785078597E+01
  0.1246988935E+01  0.1000000000E+01  0.3530110648E+00  0.6290479241E+01  0.6457077583E-16 -0.2997682260E+01  0.6770252365E+15  0.6294819119E+01  0.6450088701E-16 -0.2993857941E+01
  0.1200000000E+01  0.1000000000E+01  0.3530110648E+00  0.6163657803E+01  0.3343289301E-16 -0.2947462969E+01  0.6770252365E+15  0.6162012178E+01  0.3343046020E-16 -0.2945073264E+01
  0.1600000000E+01  0.1000000000E+01  0.4000000000E+00  0.1022081633E+02  0.2123228487E-15 -0.4663328704E+01  0.6770252365E+15  0.1022234802E+02  0.2122160825E-15 -0.4653991090E+01
  0.1553011065E+01  0.1000000000E+01  0.4000000000E+00  0.9581817182E+01  0.2249376820E-15 -0.3921990270E+01  0.6770252365E+15  0.9569324794E+01  0.2251764472E-15 -0.3912129375E+01
  0.1457046303E+01  0.1000000000E+01  0.4000000000E+00  0.8964276987E+01  0.1922412180E-15 -0.4079648308E+01  0.6770252365E+15  0.8944730561E+01  0.1924146353E-15 -0.4074122245E+01
  0.1342953697E+01  0.1000000000E+01  0.4000000000E+00  0.7509814552E+01  0.1558052698E-15 -0.3217125490E+01  0.6770252365E+15  0.7507890921E+01  0.1556401732E-15 -0.3214988289E+01
  0.1246988935E+01  0.1000000000E+01  0.4000000000E+00  0.6434076127E+01  0.6429815726E-16 -0.3595795355E+01  0.6770252365E+15  0.6438080071E+01  0.6422291542E-16 -0.3589918609E+01
  0.1200000000E+01  0.1000000000E+01  0.4000000000E+00  0.5815605631E+01  0.3885938740E-16 -0.3275666148E+01  0.6770252365E+15  0.5819453370E+01  0.3884913948E-16 -0.3272969531E+01
ZONE I=6, J=6, K=1, F=POINT
  0.2000000000E+01  0.1000000000E+01  0.0000000000E+00  0.2401624615E+01  0.7313819681E-19  0.2123356383E+02  0.6770252364E+15  0.2429878407E+01  0.9467067676E-19  0.2215505023E+02
  0.1953011065E+01  0.1000000000E+01  0.0000000000E+00  0.1289497882E+01 -0.3728239744E-16 -0.1381019488E+00  0.6770252364E+15  0.1297143847E+01 -0.3611186149E-16 -0.1507664489E+00
  0.1857046303E+01  0.1000000000E+01  0.0000000000E+00 -0.3093215635E+00 -0.1894638387E-16  0.1521142377E+00  0.6770252365E+15 -0.3056589383E+00 -0.1919743247E-16  0.1504855196E+00
  0.1742953697E+01  0.1000000000E+01  0.0000000000E+00  0.1321799421E+00  0.2083110444E-18 -0.3714522195E-01  0.6770252365E+15  0.1366082300E+00  0.1042152403E-18 -0.3687696204E-01
  0.1646988935E+01  0.1000000000E+01  0.0000000000E+00 -0.1293586042E+00  0.3141474411E-18  0.6062964954E-01  0.6770252365E+15 -0.1249157599E+00  0.2734905673E-18  0.5961414218E-01
  0.1600000000E+01  0.1000000000E+01  0.0000000000E+00  0.8658229738E-01 -0.1013689334E-17 -0.8352901617E-01  0.6770252365E+15  0.8925580612E-01 -0.1127939666E-17 -0.8228109437E-01
  0.2000000000E+01  0.1000000000E+01  0.4698893521E-01 -0.1326910374E-01  0.7484179580E-18  0.4848027766E+02  0.6770252365E+15 -0.5559310035E-01  0.6859775087E-18  0.4865910229E+02
  0.1953011065E+01  0.1000000000E+01  0.4698893521E-01  0.1094330204E+02  0.1354877403E-15  0.1449210705E+01  0.6770252365E+15  0.1093799911E+02  0.1343419346E-15  0.1474264815E+01
  0.1857046303E+01  0.1000000000E+01  0.4698893521E-01  0.1159564565E+02  0.2859586005E-15 -0.1905417633E+01  0.6770252365E+15  0.1160576596E+02  0.2868306734E-15 -0.1893530919E+01
  0.1742953697E+01  0.1000000000E+01  0.4698893521E-01  0.5703790535E+01 -0.4190984196E-16 -0.6429866213E+00  0.6770252365E+15  0.5717122177E+01 -0.4160106987E-16 -0.6384769648E+00
  0.1646988935E+01  0.1000000000E+01  0.4698893521E-01  0.4436096188E+01 -0.1207892677E-15 -0.6158278577E+00  0.6770252365E+15  0.4445686123E+01 -0.1214933656E-15 -0.6158883161E+00
  0.1600000000E+01  0.1000000000E+01  0.4698893521E-01  0.2825272619E+01 -0.8443285755E-16  0.2274550785E+00  0.6770252365E+15  0.2839415631E+01 -0.8437045523E-16  0.2190015102E+00
  0.2000000000E+01  0.1000000000E+01  0.1429536967E+00 -0.2816493045E+00  0.2742007675E-17  0.5050058138E+02  0.6770252365E+15 -0.2575119785E+00  0.2766517250E-17  0.5044213334E+02
  0.1953011065E+01  0.1000000000E+01  0.1429536967E+00  0.2768146067E+01 -0.5126504467E-15  0.1634495437E+02  0.6770252365E+15  0.2758435838E+01 -0.5122114280E-15  0.1639198641E+02
  0.1857046303E+01  0.1000000000E+01  0.1429536967E+00  0.1265078204E+02 -0.2608917086E-15 -0.3659671501E+01  0.6770252365E+15  0.1265823970E+02 -0.2615625899E-15 -0.3642296992E+01
  0.1742953697E+01  0.1000000000E+01  0.1429536967E+00  0.9934706703E+01 -0.3366136734E-16 -0.4036042851E+01  0.6770252365E+15  0.9955748283E+01 -0.3210264139E-16 -0.4037202922E+01
  0.1646988935E+01  0.1000000000E+01  0.1429536967E+00  0.9354371873E+01 -0.1604764144E-15 -0.1994116667E+01  0.6770252365E+15  0.9371304285E+01 -0.1601021088E-15 -0.2000754947E+01
  0.1600000000E+01  0.1000000000E+01  0.1429536967E+00  0.6042087983E+01 -0.2828195090E-15 -0.1736336680E+01  0.6770252365E+15  0.6071896311E+01 -0.2828263197E-15 -0.1749538938E+01
  0.2000000000E+01  0.1000000000E+01  0.2570463033E+00  0.1904788483E-01  0.1132820971E-17  0.4987108904E+02  0.6770252365E+15  0.1812806105E-01  0.1094994212E-17  0.4988020302E+02