TITLE = "Generated from ../MESH/Convergence_0000000000.hmesh and Convergence_0000001500.hsol"
VARIABLES = "x","y","z","veloT_x","veloT_y","veloT_z","slr_4","velo_x","velo_y","velo_z"
ZONE I=6, J=6, K=1, F=POINT
  0.4000000000E+00  0.1000000000E+01  0.0000000000E+00 -0.1140000964E-01  0.2928689447E-19  0.7578056131E-02  0.6209071768E+15 -0.1187294375E-01  0.2940547227E-19  0.7275983529E-02
  0.3530110648E+00  0.1000000000E+01  0.0000000000E+00 -0.9618337498E-03  0.1104412890E-19 -0.4933271570E-03  0.6209071768E+15 -0.1441499320E-02  0.9497319987E-20 -0.5497612916E-03
  0.2570463033E+00  0.1000000000E+01  0.0000000000E+00  0.3536559933E-03  0.1637232475E-20  0.2037546337E-02  0.6209071768E+15 -0.1399123562E-03  0.1374122516E-20  0.2050622438E-02
  0.1429536967E+00  0.1000000000E+01  0.0000000000E+00 -0.7706598673E-03  0.2868944907E-21 -0.1251563123E-02  0.6209071768E+15 -0.1198776839E-02  0.2033518263E-21 -0.1252508402E-02
  0.4698893521E-01  0.1000000000E+01  0.0000000000E+00  0.1727733774E-02 -0.1805507287E-20  0.1871189064E-02  0.6209071768E+15  0.1434365377E-02 -0.1951486302E-20  0.1938188966E-02
  0.0000000000E+00  0.1000000000E+01  0.0000000000E+00 -0.7519580060E-02  0.1222754426E-22  0.2114260489E-02  0.6209071768E+15 -0.7618002100E-02  0.1020806062E-22  0.2155707400E-02
  0.4000000000E+00  0.1000000000E+01  0.4698893521E-01  0.2532981833E+00  0.2558417030E-17 -0.4357819861E-01  0.6209071768E+15  0.2526052836E+00  0.2562775450E-17 -0.3481197323E-01
  0.3530110648E+00  0.1000000000E+01  0.4698893521E-01  0.1141808411E+00  0.2194207617E-17 -0.5055247773E-02  0.6209071768E+15  0.1135559816E+00  0.2192023190E-17  0.2631252655E-02
  0.2570463033E+00  0.1000000000E+01  0.4698893521E-01  0.9238814152E-01  0.6547821384E-18 -0.1306224945E-01  0.6209071768E+15  0.9187472309E-01  0.6629606494E-18 -0.8124947215E-02
  0.1429536967E+00  0.1000000000E+01  0.4698893521E-01  0.5880454668E-02  0.6373385380E-19 -0.7955442029E-02  0.6209071768E+15  0.4777053331E-02  0.6205325524E-19 -0.5906903159E-02
  0.4698893521E-01  0.1000000000E+01  0.4698893521E-01  0.5752922267E-04 -0.4671298990E-20 -0.9968144549E-02  0.6209071768E+15 -0.1400304012E-02 -0.6797612473E-20 -0.8422940311E-02
  0.0000000000E+00  0.1000000000E+01  0.4698893521E-01 -0.1824596530E-01  0.9183783417E-21  0.2373005403E-02  0.6209071768E+15 -0.1832965350E-01  0.8941356390E-21  0.2840862227E-02
  0.4000000000E+00  0.1000000000E+01  0.1429536967E+00  0.5166516498E+00  0.8446301379E-17 -0.1201502410E+00  0.6209071768E+15  0.5198092358E+00  0.8487177360E-17 -0.9536665772E-01
  0.3530110648E+00  0.1000000000E+01  0.1429536967E+00  0.2688266315E+00  0.4696610017E-17 -0.1526480783E+00  0.6209071768E+15  0.2719875528E+00  0.4545625534E-17 -0.1300340158E+00
  0.2570463033E+00  0.1000000000E+01  0.1429536967E+00  0.1970249091E+00  0.1222829495E-17 -0.8705613729E-01  0.6209071768E+15  0.2019420477E+00  0.1234909717E-17 -0.7060431765E-01
  0.1429536967E+00  0.1000000000E+01  0.1429536967E+00  0.2903175203E-01  0.1967107279E-18 -0.1036360443E+00  0.6209071768E+15  0.3233242347E-01  0.2015117211E-18 -0.9620130803E-01
  0.4698893521E-01  0.1000000000E+01  0.1429536967E+00 -0.4743901344E-02  0.3203865546E-20 -0.1077687309E-01  0.6209071768E+15 -0.4897167353E-02 -0.8092895876E-20 -0.8432329880E-02
  0.0000000000E+00  0.1000000000E+01  0.1429536967E+00 -0.2146371247E-01  0.1603527600E-21 -0.1232982531E-02  0.6209071768E+15 -0.2139023782E-01 -0.4412757705E-22 -0.7107609531E-03
  0.4000000000E+00  0.1000000000E+01  0.2570463033E+00  0.5110336358E+00  0.8704310661E-18 -0.3261051783E+00  0.6209071768E+15  0.5202094393E+00  0.8803175185E-18 -0.2987488752E+00
  0.3530110648E+00  0.1000000000E+01  0.2570463033E+00  0.3666237482E+00 -0.1771129231E-18 -0.3642677746E+00  0.6209071768E+15  0.3772498339E+00  0.1707082311E-18 -0.3401025122E+00
  0.2570463033E+00  0.1000000000E+01  0.2570463033E+00  0.2396167252E+00 -0.7302347225E-19 -0.2343042541E+00  0.6209071768E+15  0.2542035186E+00 -0.7595072633E-19 -0.2185549464E+00
  0.1429536967E+00  0.1000000000E+01  0.2570463033E+00  0.7333766384E-01  0.2798994392E-18 -0.2418660325E+00  0.6209071768E+15  0.8544035017E-01  0.2772380426E-18 -0.2346570121E+00
  0.4698893521E-01  0.1000000000E+01  0.2570463033E+00  0.1059265586E-01  0.5236321697E-18 -0.4408613479E-01  0.6209071768E+15  0.1456295184E-01  0.5523953113E-18 -0.4188686950E-01
  0.0000000000E+00  0.1000000000E+01  0.2570463033E+00 -0.1427785345E-01 -0.3800124629E-20 -0.1491134125E-02  0.6209071768E+15 -0.1428335086E-01 -0.3358501515E-20 -0.8044790080E-03
  0.4000000000E+00  0.1000000000E+01  0.3530110648E+00  0.4868663139E+00  0.1324396417E-18 -0.4896737986E+00  0.6209071768E+15  0.5006838693E+00  0.1252647977E-18 -0.4681394905E+00
  0.3530110648E+00  0.1000000000E+01  0.3530110648E+00  0.3477193451E+00 -0.1517461732E-18 -0.5049589671E+00  0.6209071768E+15  0.3673929573E+00 -0.1475016330E-18 -0.4874851235E+00
  0.2570463033E+00  0.1000000000E+01  0.3530110648E+00  0.2392815549E+00 -0.9042710439E-18 -0.3735633466E+00  0.6209071768E+15  0.2612029015E+00 -0.1027155323E-17 -0.3650747136E+00
  0.1429536967E+00  0.1000000000E+01  0.3530110648E+00  0.8200870158E-01  0.2633096556E-18 -0.3505329535E+00  0.6209071768E+15  0.9799979978E-01  0.2281975584E-18 -0.3463154643E+00
  0.4698893521E-01  0.1000000000E+01  0.3530110648E+00  0.1674961715E-01  0.3775188146E-19 -0.9978024869E-01  0.6209071768E+15  0.2335844317E-01  0.2052173796E-19 -0.9782601316E-01
  0.0000000000E+00  0.1000000000E+01  0.3530110648E+00 -0.1440333224E-01  0.4570200354E-20 -0.1968091909E-02  0.6209071768E+15 -0.1454088489E-01  0.4840587548E-20 -0.1069923249E-02
  0.4000000000E+00  0.1000000000E+01  0.4000000000E+00  0.4499790977E+00  0.1672871985E-17 -0.5609025412E+00  0.6209071768E+15  0.4663870692E+00  0.1673529601E-17 -0.5378829734E+00
  0.3530110648E+00  0.1000000000E+01  0.4000000000E+00  0.3631890121E+00  0.1081158953E-17 -0.5774568514E+00  0.6209071768E+15  0.3877969685E+00  0.1037183547E-17 -0.5585867744E+00
  0.2570463033E+00  0.1000000000E+01  0.4000000000E+00  0.2377973814E+00 -0.1330026527E-17 -0.4480271238E+00  0.6209071768E+15  0.2626876291E+00 -0.1274570859E-17 -0.4374537190E+00
  0.1429536967E+00  0.1000000000E+01  0.4000000000E+00  0.9360407646E-01  0.2169942709E-19 -0.4131878934E+00  0.6209071768E+15  0.1107859735E+00  0.7908468855E-19 -0.4079677483E+00
  0.4698893521E-01  0.1000000000E+01  0.4000000000E+00  0.1408824111E-01 -0.1423076312E-18 -0.1264507351E+00  0.6209071768E+15  0.2198489024E-01 -0.1483811714E-18 -0.1248513846E+00
  0.0000000000E+00  0.1000000000E+01  0.4000000000E+00 -0.6778462263E-02  0.7923812064E-20 -0.3190619613E-02  0.6209071768E+15 -0.7326133840E-02  0.7930696874E-20 -0.2566142819E-02
ZONE I=6, J=6, K=1, F=POINT
  0.8000000000E+00  0.1000000000E+01  0.0000000000E+00  0.1805808117E-01 -0.7157963339E-19 -0.1136178822E-01  0.6209071768E+15  0.1738171969E-01 -0.7476285460E-19 -0.1172520136E-01
  0.7530110648E+00  0.1000000000E+01  0.0000000000E+00  0.2592881598E-02  0.1135642219E-18  0.5724577112E-02  0.6209071768E+15  0.1469042929E-02  0.8494118449E-19  0.5714143924E-02
  0.6570463033E+00  0.1000000000E+01  0.0000000000E+00  0.1159442181E-03  0.2673381115E-19  0.3569569361E-04  0.6209071768E+15 -0.9106812730E-03  0.1183519871E-19  0.9206170525E-04
  0.5429536967E+00  0.1000000000E+01  0.0000000000E+00  0.1243462552E-02  0.3772782693E-19  0.6642214917E-02  0.6209071768E+15  0.4694111022E-03  0.1475620945E-19  0.6566756189E-02
  0.4469889352E+00  0.1000000000E+01  0.0000000000E+00 -0.1476735525E-02 -0.1977794715E-19  0.4790964052E-03  0.6209071768E+15 -0.2268623072E-02 -0.4676049795E-19  0.4075911903E-03
  0.4000000000E+00  0.1000000000E+01  0.0000000000E+00  0.1514319487E-01  0.3295662331E-19  0.7283172679E-02  0.6209071768E+15  0.1453520268E-01  0.3310424727E-19  0.6972959034E-02
  0.8000000000E+00  0.1000000000E+01  0.4698893521E-01  0.3252666729E+00 -0.2647392676E-16  0.1740368588E-01  0.6209071768E+15  0.3230931555E+00 -0.2644448977E-16  0.3156915176E-01
  0.7530110648E+00  0.1000000000E+01  0.4698893521E-01  0.5251409732E+00 -0.2635744088E-16 -0.4453995117E-01  0.6209071768E+15  0.5226721579E+00 -0.2623406078E-16 -0.2965291693E-01
  0.6570463033E+00  0.1000000000E+01  0.4698893521E-01  0.3076904887E+00 -0.5682423005E-17 -0.1846163040E-01  0.6209071768E+15  0.3059386368E+00 -0.5683002609E-17 -0.3439422811E-02
  0.5429536967E+00  0.1000000000E+01  0.4698893521E-01  0.3282634996E+00  0.4393609002E-17 -0.1106079689E-01  0.6209071768E+15  0.3275319526E+00  0.4389458472E-17  0.2595189639E-02
  0.4469889352E+00  0.1000000000E+01  0.4698893521E-01  0.1921221727E+00  0.3635623458E-17 -0.1703212624E-02  0.6209071768E+15  0.1913554825E+00  0.3631400372E-17  0.8477666921E-02
  0.4000000000E+00  0.1000000000E+01  0.4698893521E-01  0.2947935373E+00  0.2320337205E-17 -0.4434329263E-01  0.6209071768E+15  0.2939950864E+00  0.2325187646E-17 -0.3556402062E-01
  0.8000000000E+00  0.1000000000E+01  0.1429536967E+00  0.8336025648E+00 -0.5566360045E-16 -0.3079411834E+00  0.6209071768E+15  0.8263627050E+00 -0.5585686817E-16 -0.2751436885E+00
  0.7530110648E+00  0.1000000000E+01  0.1429536967E+00  0.1163320618E+01 -0.3679042264E-16 -0.1818544958E+00  0.6209071768E+15  0.1159849453E+01 -0.3699798550E-16 -0.1472612028E+00
  0.6570463033E+00  0.1000000000E+01  0.1429536967E+00  0.7676784123E+00 -0.7509222111E-17 -0.2017872721E+00  0.6209071768E+15  0.7676044202E+00 -0.7481137191E-17 -0.1677911125E+00
  0.5429536967E+00  0.1000000000E+01  0.1429536967E+00  0.7244222878E+00  0.8824194640E-17 -0.7089980678E-01  0.6209071768E+15  0.7268849621E+00  0.8910542188E-17 -0.4056514791E-01
  0.4469889352E+00  0.1000000000E+01  0.1429536967E+00  0.4390684081E+00  0.8527837925E-17 -0.1469547406E+00  0.6209071768E+15  0.4425171153E+00  0.8374107891E-17 -0.1199068355E+00
  0.4000000000E+00  0.1000000000E+01  0.1429536967E+00  0.5684105086E+00  0.9169251018E-17 -0.1196200472E+00  0.6209071768E+15  0.5708509058E+00  0.9202116072E-17 -0.9483487306E-01
  0.8000000000E+00  0.1000000000E+01  0.2570463033E+00  0.1388959609E+01 -0.1391474541E-16 -0.7058836447E+00  0.6209071768E+15  0.1375927003E+01 -0.1394972422E-16 -0.6780591425E+00
  0.7530110648E+00  0.1000000000E+01  0.2570463033E+00  0.1346876916E+01 -0.1116089681E-16 -0.4908445297E+00  0.6209071768E+15  0.1339657398E+01 -0.1069706321E-16 -0.4604667920E+00
  0.6570463033E+00  0.1000000000E+01  0.2570463033E+00  0.1016369814E+01 -0.7564414795E-17 -0.4913055517E+00  0.6209071768E+15  0.1017395106E+01 -0.7593461894E-17 -0.4569433026E+00
  0.5429536967E+00  0.1000000000E+01  0.2570463033E+00  0.7990582852E+00  0.1125586776E-19 -0.2744023437E+00  0.6209071768E+15  0.8050433928E+00  0.9592595020E-19 -0.2401182680E+00
  0.4469889352E+00  0.1000000000E+01  0.2570463033E+00  0.5506088731E+00  0.6254943434E-18 -0.3776520609E+00  0.6209071768E+15  0.5590202511E+00  0.1010356750E-17 -0.3474757817E+00
  0.4000000000E+00  0.1000000000E+01  0.2570463033E+00  0.5425991860E+00  0.9013793827E-18 -0.3255000501E+00  0.6209071768E+15  0.5519305419E+00  0.9127677127E-18 -0.2981618536E+00
  0.8000000000E+00  0.1000000000E+01  0.3530110648E+00  0.1256404850E+01 -0.1673581619E-17 -0.9759432194E+00  0.6209071768E+15  0.1239873519E+01 -0.1663994651E-17 -0.9574519292E+00
  0.7530110648E+00  0.1000000000E+01  0.3530110648E+00  0.1272833629E+01  0.4341853149E-17 -0.8044553185E+00  0.6209071768E+15  0.1260243013E+01  0.3603457505E-17 -0.7840784721E+00
  0.6570463033E+00  0.1000000000E+01  0.3530110648E+00  0.9750545600E+00 -0.5361631119E-17 -0.7124994616E+00  0.6209071768E+15  0.9712149505E+00 -0.5595765271E-17 -0.6857212076E+00
  0.5429536967E+00  0.1000000000E+01  0.3530110648E+00  0.7661977654E+00 -0.6593715460E-17 -0.4739265454E+00  0.6209071768E+15  0.7746091750E+00 -0.7340126568E-17 -0.4442192835E+00
  0.4469889352E+00  0.1000000000E+01  0.3530110648E+00  0.4945220365E+00 -0.2833846663E-18 -0.5299095195E+00  0.6209071768E+15  0.5096543414E+00 -0.4628524424E-18 -0.5054863086E+00
  0.4000000000E+00  0.1000000000E+01  0.3530110648E+00  0.5195276972E+00  0.1067090875E-18 -0.4895150966E+00  0.6209071768E+15  0.5338250244E+00  0.9643404895E-19 -0.4679608873E+00
  0.8000000000E+00  0.1000000000E+01  0.4000000000E+00  0.1222525740E+01 -0.1122050009E-16 -0.1144036093E+01  0.6209071768E+15  0.1204845235E+01 -0.1122113414E-16 -0.1120795439E+01
  0.7530110648E+00  0.1000000000E+01  0.4000000000E+00  0.1125562812E+01 -0.6606671500E-17 -0.9166964033E+00  0.6209071768E+15  0.1110970429E+01 -0.6739867358E-17 -0.8915924216E+00
  0.6570463033E+00  0.1000000000E+01  0.4000000000E+00  0.9038897166E+00 -0.4400820319E-17 -0.8183322789E+00  0.6209071768E+15  0.8980970099E+00 -0.4252679330E-17 -0.7908157655E+00
  0.5429536967E+00  0.1000000000E+01  0.4000000000E+00  0.7023258363E+00  0.1955692728E-17 -0.5892882987E+00  0.6209071768E+15  0.7116060238E+00  0.2403398773E-17 -0.5621789424E+00
  0.4469889352E+00  0.1000000000E+01  0.4000000000E+00  0.5189838377E+00  0.2138634083E-17 -0.6143843819E+00  0.6209071768E+15  0.5366813097E+00  0.2420744329E-17 -0.5889980015E+00
  0.4000000000E+00  0.1000000000E+01  0.4000000000E+00  0.4618246170E+00  0.1693701859E-17 -0.5601916477E+00  0.6209071768E+15  0.4784282137E+00  0.1693909760E-17 -0.5372086536E+00
ZONE I=6, J=6, K=1, F=POINT
  0.1200000000E+01  0.1000000000E+01  0.0000000000E+00 -0.3160884767E-01  0.6525389547E-19  0.3718753993E-01  0.6209071768E+15 -0.3239709675E-01  0.6723103976E-19  0.3698887788E-01
  0.1153011065E+01  0.1000000000E+01  0.0000000000E+00 -0.4993598984E-02 -0.1798156943E-18 -0.9487627822E-02  0.6209071768E+15 -0.5729133864E-02 -0.2239550511E-18 -0.9456842934E-02
  0.1057046303E+01  0.1000000000E+01  0.0000000000E+00  0.2487509245E-02  0.3673207402E-19  0.5988831666E-02  0.6209071768E+15  0.1904344321E-02  0.2162316490E-19  0.6039493823E-02
  0.9429536967E+00  0.1000000000E+01  0.0000000000E+00 -0.1762543801E-02  0.2114101792E-19 -0.8205133489E-02  0.6209071768E+15 -0.2195115896E-02  0.1762557325E-19 -0.8160112283E-02
  0.8469889352E+00  0.1000000000E+01  0.0000000000E+00  0.3827426749E-02 -0.8841570960E-20  0.5200133460E-02  0.6209071768E+15  0.3456953253E-02 -0.1025997359E-19  0.5170854348E-02
  0.8000000000E+00  0.1000000000E+01  0.0000000000E+00 -0.2675857334E-01 -0.8106873876E-19 -0.1082984265E-01  0.6209071768E+15 -0.2739901676E-01 -0.8447197595E-19 -0.1118128474E-01
  0.1200000000E+01  0.1000000000E+01  0.4698893521E-01  0.1939959457E+01 -0.4120369767E-16 -0.1856012896E+00  0.6209071768E+15  0.1938622703E+01 -0.4111700388E-16 -0.1960818321E+00
  0.1153011065E+01  0.1000000000E+01  0.4698893521E-01  0.1294022469E+01 -0.2582393641E-16 -0.3718872267E-01  0.6209071768E+15  0.1291798054E+01 -0.2574383193E-16 -0.4639407983E-01
  0.1057046303E+01  0.1000000000E+01  0.4698893521E-01  0.1230773953E+01 -0.1129958169E-16 -0.7269581744E-01  0.6209071768E+15  0.1227873701E+01 -0.1134414338E-16 -0.7685721373E-01
  0.9429536967E+00  0.1000000000E+01  0.4698893521E-01  0.7016121152E+00 -0.1609763028E-16 -0.6374601753E-01  0.6209071768E+15  0.6992255845E+00 -0.1602780517E-16 -0.5842960008E-01
  0.8469889352E+00  0.1000000000E+01  0.4698893521E-01  0.6412799158E+00 -0.3071276551E-16 -0.6721171098E-01  0.6209071768E+15  0.6399794935E+00 -0.3066588948E-16 -0.5516509081E-01
  0.8000000000E+00  0.1000000000E+01  0.4698893521E-01  0.2638588563E+00 -0.2577572461E-16  0.1945824739E-01  0.6209071768E+15  0.2627413459E+00 -0.2576369374E-16  0.3358697071E-01
  0.1200000000E+01  0.1000000000E+01  0.1429536967E+00  0.4158706999E+01 -0.5719550546E-16 -0.4548359913E+00  0.6209071768E+15  0.4155232325E+01 -0.5701366736E-16 -0.4685814623E+00
  0.1153011065E+01  0.1000000000E+01  0.1429536967E+00  0.2800844776E+01 -0.6678755525E-16 -0.6594694103E+00  0.6209071768E+15  0.2792513878E+01 -0.6725353423E-16 -0.6689790504E+00
  0.1057046303E+01  0.1000000000E+01  0.1429536967E+00  0.2613317683E+01 -0.3930817091E-16 -0.4599054860E+00  0.6209071768E+15  0.2599996317E+01 -0.3928771159E-16 -0.4579903634E+00
  0.9429536967E+00  0.1000000000E+01  0.1429536967E+00  0.1568193002E+01 -0.3538907524E-16 -0.6011591291E+00  0.6209071768E+15  0.1554655586E+01 -0.3537310764E-16 -0.5836160979E+00
  0.8469889352E+00  0.1000000000E+01  0.1429536967E+00  0.1415972175E+01 -0.5240331386E-16 -0.3088719906E+00  0.6209071768E+15  0.1406748471E+01 -0.5233582457E-16 -0.2799544176E+00
  0.8000000000E+00  0.1000000000E+01  0.1429536967E+00  0.7493306572E+00 -0.5789145735E-16 -0.3094677597E+00  0.6209071768E+15  0.7441788681E+00 -0.5808322521E-16 -0.2766698204E+00
  0.1200000000E+01  0.1000000000E+01  0.2570463033E+00  0.3559831400E+01 -0.1573328095E-16 -0.1272611119E+01  0.6209071768E+15  0.3545811322E+01 -0.1567318805E-16 -0.1271280356E+01
  0.1153011065E+01  0.1000000000E+01  0.2570463033E+00  0.3156276858E+01 -0.5393377437E-16 -0.1520176100E+01  0.6209071768E+15  0.3137575323E+01 -0.5175722219E-16 -0.1516918736E+01
  0.1057046303E+01  0.1000000000E+01  0.2570463033E+00  0.2613505514E+01 -0.4146063795E-16 -0.1145250954E+01  0.6209071768E+15  0.2587903952E+01 -0.4151557397E-16 -0.1135442957E+01
  0.9429536967E+00  0.1000000000E+01  0.2570463033E+00  0.1965840123E+01 -0.3731917966E-16 -0.1267840904E+01  0.6209071768E+15  0.1940071251E+01 -0.3591506505E-16 -0.1249056122E+01
  0.8469889352E+00  0.1000000000E+01  0.2570463033E+00  0.1654510025E+01 -0.1563254393E-16 -0.7416634321E+00  0.6209071768E+15  0.1636334233E+01 -0.1592932423E-16 -0.7165393661E+00
  0.8000000000E+00  0.1000000000E+01  0.2570463033E+00  0.1350629212E+01 -0.1409596009E-16 -0.7081366426E+00  0.6209071768E+15  0.1338276375E+01 -0.1410640182E-16 -0.6800793680E+00
  0.1200000000E+01  0.1000000000E+01  0.3530110648E+00  0.3275875441E+01  0.9375437586E-17 -0.2127094208E+01  0.6209071768E+15  0.3261443195E+01  0.9404679922E-17 -0.2111498632E+01
  0.1153011065E+01  0.1000000000E+01  0.3530110648E+00  0.2704138949E+01 -0.1022916240E-16 -0.2044732039E+01  0.6209071768E+15  0.2684645753E+01 -0.9938715386E-17 -0.2029958055E+01
  0.1057046303E+01  0.1000000000E+01  0.3530110648E+00  0.2300933226E+01 -0.2405080178E-16 -0.1690193171E+01  0.6209071768E+15  0.2272313080E+01 -0.2420608378E-16 -0.1677140021E+01
  0.9429536967E+00  0.1000000000E+01  0.3530110648E+00  0.1724385407E+01 -0.2559923580E-16 -0.1586564687E+01  0.6209071768E+15  0.1694670065E+01 -0.2471041618E-16 -0.1572477213E+01
  0.8469889352E+00  0.1000000000E+01  0.3530110648E+00  0.1549714477E+01 -0.6048612651E-17 -0.1110409422E+01  0.6209071768E+15  0.1527885814E+01 -0.6840752764E-17 -0.1093855551E+01
  0.8000000000E+00  0.1000000000E+01  0.3530110648E+00  0.1210168800E+01 -0.1621799346E-17 -0.9761097241E+00  0.6209071768E+15  0.1193416431E+01 -0.1598017441E-17 -0.9576949536E+00
  0.1200000000E+01  0.1000000000E+01  0.4000000000E+00  0.2805705330E+01  0.7265059701E-17 -0.2281365603E+01  0.6209071768E+15  0.2791160388E+01  0.7297057165E-17 -0.2260817539E+01
  0.1153011065E+01  0.1000000000E+01  0.4000000000E+00  0.2594872500E+01  0.1018411034E-17 -0.2384647844E+01  0.6209071768E+15  0.2576151849E+01  0.6348080288E-18 -0.2364688593E+01
  0.1057046303E+01  0.1000000000E+01  0.4000000000E+00  0.2062200966E+01 -0.1654412098E-16 -0.1907365333E+01  0.6209071768E+15  0.2034547185E+01 -0.1670940987E-16 -0.1889354662E+01
  0.9429536967E+00  0.1000000000E+01  0.4000000000E+00  0.1621481231E+01 -0.2723095458E-16 -0.1786550220E+01  0.6209071768E+15  0.1590898859E+01 -0.2653517049E-16 -0.1769313226E+01
  0.8469889352E+00  0.1000000000E+01  0.4000000000E+00  0.1355577548E+01 -0.1766926756E-16 -0.1239819567E+01  0.6209071768E+15  0.1332021189E+01 -0.1791264873E-16 -0.1218732735E+01
  0.8000000000E+00  0.1000000000E+01  0.4000000000E+00  0.1218091351E+01 -0.1120398116E-16 -0.1146979727E+01  0.6209071768E+15  0.1199317478E+01 -0.1119977389E-16 -0.1123592699E+01
ZONE I=6, J=6, K=1, F=POINT
  0.1600000000E+01  0.1000000000E+01  0.0000000000E+00  0.1295921039E+00 -0.8590246029E-18 -0.7299144420E-01  0.6209071768E+15  0.1290051917E+00 -0.9832169598E-18 -0.7262952690E-01
  0.1553011065E+01  0.1000000000E+01  0.0000000000E+00  0.9445168386E-02 -0.1297408734E-17  0.4533748884E-01  0.6209071768E+15  0.9222775339E-02 -0.1318978570E-17  0.4522517014E-01
  0.1457046303E+01  0.1000000000E+01  0.0000000000E+00 -0.8146774173E-02 -0.5406911329E-19 -0.3268020300E-02  0.6209071768E+15 -0.8426752545E-02 -0.6641473927E-19 -0.3245987670E-02
  0.1342953697E+01  0.1000000000E+01  0.0000000000E+00  0.4875830884E-02  0.3885432179E-18  0.2998751761E-01  0.6209071768E+15  0.4654554457E-02  0.3769595316E-18  0.2989547752E-01
  0.1246988935E+01  0.1000000000E+01  0.0000000000E+00 -0.7874094712E-02  0.1079006860E-18 -0.8002936966E-02  0.6209071768E+15 -0.7970874138E-02  0.1117814541E-18 -0.8023911777E-02
  0.1200000000E+01  0.1000000000E+01  0.0000000000E+00  0.5780423642E-01  0.6941602243E-19  0.3726169159E-01  0.6209071768E+15  0.5759130699E-01  0.7158992058E-19  0.3707001470E-01
  0.1600000000E+01  0.1000000000E+01  0.4698893521E-01  0.2775985671E+01 -0.8895683744E-16  0.2137161055E+00  0.6209071768E+15  0.2773622436E+01 -0.8888698041E-16  0.1923754273E+00
  0.1553011065E+01  0.1000000000E+01  0.4698893521E-01  0.3182384265E+01 -0.4565471862E-16 -0.2859261631E+00  0.6209071768E+15  0.3180466959E+01 -0.4569041794E-16 -0.3066602199E+00
  0.1457046303E+01  0.1000000000E+01  0.4698893521E-01  0.2160201645E+01 -0.6299240868E-17 -0.7975557366E-01  0.6209071768E+15  0.2159250636E+01 -0.6282890822E-17 -0.9721355080E-01
  0.1342953697E+01  0.1000000000E+01  0.4698893521E-01  0.2152283203E+01  0.3140654601E-16 -0.4838228362E-01  0.6209071768E+15  0.2151730915E+01  0.3138719619E-16 -0.6462129969E-01
  0.1246988935E+01  0.1000000000E+01  0.4698893521E-01  0.1635973838E+01 -0.4185581012E-17 -0.6672325530E-02  0.6209071768E+15  0.1634966631E+01 -0.4217415795E-17 -0.1981459230E-01
  0.1200000000E+01  0.1000000000E+01  0.4698893521E-01  0.2037543739E+01 -0.4540789221E-16 -0.1912541180E+00  0.6209071768E+15  0.2035133267E+01 -0.4532444859E-16 -0.2014012789E+00
  0.1600000000E+01  0.1000000000E+01  0.1429536967E+00  0.5179658460E+01 -0.2672590691E-15 -0.2039117331E+01  0.6209071768E+15  0.5165928762E+01 -0.2672707203E-15 -0.2059698915E+01
  0.1553011065E+01  0.1000000000E+01  0.1429536967E+00  0.6781298513E+01 -0.1578118952E-15 -0.1110060089E+01  0.6209071768E+15  0.6777019487E+01 -0.1576175122E-15 -0.1130879889E+01
  0.1457046303E+01  0.1000000000E+01  0.1429536967E+00  0.4652705131E+01  0.3164706181E-16 -0.9456704237E+00  0.6209071768E+15  0.4651778092E+01  0.3134765625E-16 -0.9658509921E+00
  0.1342953697E+01  0.1000000000E+01  0.1429536967E+00  0.4692826510E+01  0.1084514021E-15 -0.1187020815E+00  0.6209071768E+15  0.4691522132E+01  0.1083827566E-15 -0.1390308076E+00
  0.1246988935E+01  0.1000000000E+01  0.1429536967E+00  0.3506410939E+01  0.2868489982E-16 -0.5756941707E+00  0.6209071768E+15  0.3500290890E+01  0.2939652925E-16 -0.5926193313E+00
  0.1200000000E+01  0.1000000000E+01  0.1429536967E+00  0.4322926904E+01 -0.6136456076E-16 -0.4499941114E+00  0.6209071768E+15  0.4310310309E+01 -0.6106821892E-16 -0.4642180467E+00
  0.1600000000E+01  0.1000000000E+01  0.2570463033E+00  0.8860566417E+01  0.5773082849E-16 -0.4241516434E+01  0.6209071768E+15  0.8867242916E+01  0.5770298078E-16 -0.4248062590E+01
  0.1553011065E+01  0.1000000000E+01  0.2570463033E+00  0.7713510635E+01  0.8086141418E-16 -0.2892749595E+01  0.6209071768E+15  0.7712446677E+01  0.8074825028E-16 -0.2895280117E+01
  0.1457046303E+01  0.1000000000E+01  0.2570463033E+00  0.6323672955E+01  0.1693609650E-15 -0.2401045125E+01  0.6209071768E+15  0.6324381504E+01  0.1692300559E-15 -0.2403732940E+01
  0.1342953697E+01  0.1000000000E+01  0.2570463033E+00  0.4888268353E+01  0.1343402398E-15 -0.9500300071E+00  0.6209071768E+15  0.4887866588E+01  0.1342420761E-15 -0.9526368420E+00
  0.1246988935E+01  0.1000000000E+01  0.2570463033E+00  0.3890375759E+01  0.3973544994E-16 -0.1510081229E+01  0.6209071768E+15  0.3879745251E+01  0.3915888339E-16 -0.1510073306E+01
  0.1200000000E+01  0.1000000000E+01  0.2570463033E+00  0.3601416557E+01 -0.1608342372E-16 -0.1264749561E+01  0.6209071768E+15  0.3586619635E+01 -0.1599488299E-16 -0.1265219295E+01
  0.1600000000E+01  0.1000000000E+01  0.3530110648E+00  0.6648301826E+01  0.1086638968E-15 -0.5035942081E+01  0.6209071768E+15  0.6648334472E+01  0.1086837821E-15 -0.5028251760E+01
  0.1553011065E+01  0.1000000000E+01  0.3530110648E+00  0.6744147503E+01  0.1258809966E-15 -0.4558417380E+01  0.6209071768E+15  0.6741696354E+01  0.1258750491E-15 -0.4551781909E+01
  0.1457046303E+01  0.1000000000E+01  0.3530110648E+00  0.5529565539E+01  0.1517624592E-15 -0.3534384235E+01  0.6209071768E+15  0.5529915380E+01  0.1515075630E-15 -0.3526292129E+01
  0.1342953697E+01  0.1000000000E+01  0.3530110648E+00  0.4472563076E+01  0.1275020323E-15 -0.2265573774E+01  0.6209071768E+15  0.4470158884E+01  0.1273025942E-15 -0.2254063586E+01
  0.1246988935E+01  0.1000000000E+01  0.3530110648E+00  0.3325379913E+01  0.4279210057E-16 -0.2209294192E+01  0.6209071768E+15  0.3312758746E+01  0.4315722528E-16 -0.2194001513E+01
  0.1200000000E+01  0.1000000000E+01  0.3530110648E+00  0.3352269406E+01  0.9443223803E-17 -0.2127894889E+01  0.6209071768E+15  0.3335696662E+01  0.9459092264E-17 -0.2111887487E+01
  0.1600000000E+01  0.1000000000E+01  0.4000000000E+00  0.6626642234E+01  0.9079610483E-16 -0.5928561538E+01  0.6209071768E+15  0.6628065364E+01  0.9078819431E-16 -0.5917208824E+01
  0.1553011065E+01  0.1000000000E+01  0.4000000000E+00  0.5867024435E+01  0.1211389889E-15 -0.4661903518E+01  0.6209071768E+15  0.5866034259E+01  0.1212615282E-15 -0.4651265940E+01
  0.1457046303E+01  0.1000000000E+01  0.4000000000E+00  0.5216253948E+01  0.1244433385E-15 -0.4038764829E+01  0.6209071768E+15  0.5214843753E+01  0.1245494858E-15 -0.4027461251E+01
  0.1342953697E+01  0.1000000000E+01  0.4000000000E+00  0.4018621939E+01  0.1224470432E-15 -0.2556830611E+01  0.6209071768E+15  0.4015044179E+01  0.1222726110E-15 -0.2542111844E+01
  0.1246988935E+01  0.1000000000E+01  0.4000000000E+00  0.3239814185E+01  0.3416326970E-16 -0.2634098730E+01  0.6209071768E+15  0.3225047281E+01  0.3437247533E-16 -0.2614341688E+01
  0.1200000000E+01  0.1000000000E+01  0.4000000000E+00  0.2782697367E+01  0.7525685431E-17 -0.2271269547E+01  0.6209071768E+15  0.2768281100E+01  0.7544346852E-17 -0.2252231304E+01
ZONE I=6, J=6, K=1, F=POINT
  0.2000000000E+01  0.1000000000E+01  0.0000000000E+00  0.2402504138E+01  0.7212193334E-19  0.2123388163E+02  0.6209071768E+15  0.2430418996E+01  0.9359507085E-19  0.2215502877E+02
  0.1953011065E+01  0.1000000000E+01  0.0000000000E+00  0.1290651035E+01 -0.3732324701E-16 -0.1365443549E+00  0.6209071768E+15  0.1295019391E+01 -0.3607849026E-16 -0.1499474053E+00
  0.1857046303E+01  0.1000000000E+01  0.0000000000E+00 -0.3077251442E+00 -0.1888527604E-16  0.1526966804E+00  0.6209071768E+15 -0.3082450607E+00 -0.1936600064E-16  0.1510726516E+00
  0.1742953697E+01  0.1000000000E+01  0.0000000000E+00  0.1333692114E+00  0.2829159750E-18 -0.3855970486E-01  0.6209071768E+15  0.1342983067E+00  0.2015641344E-18 -0.3798656856E-01
  0.1646988935E+01  0.1000000000E+01  0.0000000000E+00 -0.1281896349E+00  0.3964133116E-18  0.6061758448E-01  0.6209071768E+15 -0.1275675030E+00  0.3557007826E-18  0.5969234799E-01
  0.1600000000E+01  0.1000000000E+01  0.0000000000E+00  0.8781723051E-01 -0.9369488756E-18 -0.8529898056E-01  0.6209071768E+15  0.8730518831E-01 -0.1063587099E-17 -0.8354430307E-01
  0.2000000000E+01  0.1000000000E+01  0.4698893521E-01 -0.1124736325E-01  0.7325852415E-18  0.4848246962E+02  0.6209071768E+15 -0.5373271023E-01  0.6815604689E-18  0.4865744117E+02
  0.1953011065E+01  0.1000000000E+01  0.4698893521E-01  0.1100231998E+02  0.1452094537E-15  0.1508951214E+01  0.6209071768E+15  0.1099091446E+02  0.1439753768E-15  0.1525368350E+01
  0.1857046303E+01  0.1000000000E+01  0.4698893521E-01  0.1183003987E+02  0.3182665900E-15 -0.1856626813E+01  0.6209071768E+15  0.1183371135E+02  0.3186237000E-15 -0.1860591350E+01
  0.1742953697E+01  0.1000000000E+01  0.4698893521E-01  0.5840418812E+01 -0.6783434629E-17 -0.6912544182E+00  0.6209071768E+15  0.5846643375E+01 -0.6486913039E-17 -0.7085368571E+00
  0.1646988935E+01  0.1000000000E+01  0.4698893521E-01  0.4294859761E+01 -0.1143004851E-15 -0.6601932735E+00  0.6209071768E+15  0.4294810419E+01 -0.1144670029E-15 -0.6799686308E+00
  0.1600000000E+01  0.1000000000E+01  0.4698893521E-01  0.2614019316E+01 -0.8610853883E-16  0.1992015149E+00  0.6209071768E+15  0.2621160275E+01 -0.8585335085E-16  0.1726737926E+00
  0.2000000000E+01  0.1000000000E+01  0.1429536967E+00 -0.2808026967E+00  0.2583520511E-17  0.5050277407E+02  0.6209071768E+15 -0.2565151867E+00  0.2578972728E-17  0.5043943432E+02
  0.1953011065E+01  0.1000000000E+01  0.1429536967E+00  0.2805429467E+01 -0.5119524294E-15  0.1658294271E+02  0.6209071768E+15  0.2796787480E+01 -0.5113483003E-15  0.1661861052E+02
  0.1857046303E+01  0.1000000000E+01  0.1429536967E+00  0.1265485211E+02 -0.2410644151E-15 -0.3636798841E+01  0.6209071768E+15  0.1266251061E+02 -0.2417871253E-15 -0.3636343884E+01
  0.1742953697E+01  0.1000000000E+01  0.1429536967E+00  0.9433857526E+01  0.6099147883E-16 -0.4504284418E+01  0.6209071768E+15  0.9448024551E+01  0.6156589359E-16 -0.4518783835E+01
  0.1646988935E+01  0.1000000000E+01  0.1429536967E+00  0.8329807087E+01 -0.1399906917E-15 -0.2400120388E+01  0.6209071768E+15  0.8335580843E+01 -0.1395813388E-15 -0.2418565038E+01
  0.1600000000E+01  0.1000000000E+01  0.1429536967E+00  0.4813829382E+01 -0.2834464325E-15 -0.2038170139E+01  0.6209071768E+15  0.4835723791E+01 -0.2839655133E-15 -0.2064180128E+01
  0.2000000000E+01  0.1000000000E+01  0.2570463033E+00  0.1774248238E-01  0.1050194228E-17  0.4987136874E+02  0.6209071768E+15  0.1702291265E-01  0.9781214474E-18  0.4987637977E+02