TITLE = "Generated from ../MESH/Convergence_0000000000.hmesh and Convergence_0000000900.hsol"
VARIABLES = "x","y","z","veloT_x","veloT_y","veloT_z","slr_4","velo_x","velo_y","velo_z"
ZONE I=6, J=6, K=1, F=POINT
  0.4000000000E+00  0.1000000000E+01  0.0000000000E+00 -0.1194369101E-01  0.3106073806E-19  0.7175785380E-02  0.6143640011E+15 -0.1358553381E-01  0.3057450203E-19  0.6974994365E-02
  0.3530110648E+00  0.1000000000E+01  0.0000000000E+00 -0.1471919685E-02  0.1243150607E-19 -0.3932901059E-03  0.6143640011E+15 -0.3387662079E-02  0.1069669606E-19 -0.5848160930E-03
  0.2570463033E+00  0.1000000000E+01  0.0000000000E+00  0.2797348608E-05  0.2005782965E-20  0.2216147066E-02  0.6143640011E+15 -0.1789360284E-02  0.1333180867E-20  0.2145147701E-02
  0.1429536967E+00  0.1000000000E+01  0.0000000000E+00 -0.7181551837E-03  0.3214087435E-21 -0.1011116287E-02  0.6143640011E+15 -0.3408428475E-02  0.1083230269E-21 -0.1197047536E-02
  0.4698893521E-01  0.1000000000E+01  0.0000000000E+00  0.1996507924E-02 -0.1479523222E-20  0.1763074351E-02  0.6143640011E+15 -0.5693501892E-03 -0.1882995337E-20  0.2145999922E-02
  0.0000000000E+00  0.1000000000E+01  0.0000000000E+00 -0.7706779970E-02  0.9785007769E-23  0.2121124827E-02  0.6143640011E+15 -0.8033156687E-02  0.1033962742E-22  0.2448218055E-02
  0.4000000000E+00  0.1000000000E+01  0.4698893521E-01  0.2310647846E+00  0.2166010344E-17 -0.5633593129E-01  0.6143640011E+15  0.2266131526E+00  0.2193078999E-17 -0.2575918847E-01
  0.3530110648E+00  0.1000000000E+01  0.4698893521E-01  0.8441935304E-01  0.1779183094E-17 -0.1572986876E-01  0.6143640011E+15  0.7878268562E-01  0.1805416639E-17  0.1396048371E-01
  0.2570463033E+00  0.1000000000E+01  0.4698893521E-01  0.6373866619E-01  0.3727695244E-18 -0.1991294950E-01  0.6143640011E+15  0.6039101754E-01  0.4129384591E-18  0.3926874568E-02
  0.1429536967E+00  0.1000000000E+01  0.4698893521E-01 -0.5631717333E-02 -0.1182066030E-19 -0.9942659501E-02  0.6143640011E+15 -0.1118314116E-01 -0.1849778913E-19  0.3639761545E-02
  0.4698893521E-01  0.1000000000E+01  0.4698893521E-01  0.2749012218E-02 -0.9725957159E-20 -0.1313373454E-01  0.6143640011E+15 -0.4056343890E-02 -0.2062237073E-19 -0.4792571469E-02
  0.0000000000E+00  0.1000000000E+01  0.4698893521E-01 -0.1891568240E-01  0.9355408170E-21  0.2305894496E-02  0.6143640011E+15 -0.1928903387E-01  0.8860620692E-21  0.4901347489E-02
  0.4000000000E+00  0.1000000000E+01  0.1429536967E+00  0.4402596545E+00  0.7910311831E-17 -0.1478704443E+00  0.6143640011E+15  0.4384015261E+00  0.7881947788E-17 -0.1099192500E+00
  0.3530110648E+00  0.1000000000E+01  0.1429536967E+00  0.1870608650E+00  0.4091467708E-17 -0.1716928815E+00  0.6143640011E+15  0.1874068602E+00  0.3861238861E-17 -0.1366174908E+00
  0.2570463033E+00  0.1000000000E+01  0.1429536967E+00  0.1296593291E+00  0.7226951549E-18 -0.7989332172E-01  0.6143640011E+15  0.1375380551E+00  0.7413016522E-18 -0.5532175461E-01
  0.1429536967E+00  0.1000000000E+01  0.1429536967E+00 -0.2194093875E-02  0.3400505549E-19 -0.8136259440E-01  0.6143640011E+15  0.9037427253E-03  0.4163102241E-19 -0.6925833149E-01
  0.4698893521E-01  0.1000000000E+01  0.1429536967E+00 -0.6922175943E-02  0.6637217161E-20 -0.1287542473E-02  0.6143640011E+15 -0.1148600801E-01 -0.3248649434E-19  0.6940970705E-02
  0.0000000000E+00  0.1000000000E+01  0.1429536967E+00 -0.2232059386E-01  0.3693038412E-22 -0.1319607737E-02  0.6143640011E+15 -0.2220258720E-01 -0.8275742181E-22  0.1501702564E-02
  0.4000000000E+00  0.1000000000E+01  0.2570463033E+00  0.4054403287E+00  0.3083423683E-18 -0.3179971106E+00  0.6143640011E+15  0.4092418530E+00  0.3124755691E-18 -0.2944558033E+00
  0.3530110648E+00  0.1000000000E+01  0.2570463033E+00  0.2721669331E+00 -0.8156675324E-18 -0.3464580672E+00  0.6143640011E+15  0.2814079591E+00 -0.5112907155E-18 -0.3253348908E+00
  0.2570463033E+00  0.1000000000E+01  0.2570463033E+00  0.1829737035E+00 -0.3582831214E-18 -0.1859472868E+00  0.6143640011E+15  0.2020431880E+00 -0.3615802932E-18 -0.1713969030E+00
  0.1429536967E+00  0.1000000000E+01  0.2570463033E+00  0.5294657561E-01  0.1983804094E-18 -0.1834070499E+00  0.6143640011E+15  0.6200467860E-01  0.1951109020E-18 -0.1748377911E+00
  0.4698893521E-01  0.1000000000E+01  0.2570463033E+00  0.8183492975E-02  0.4636624028E-18 -0.1542946967E-01  0.6143640011E+15  0.4049382969E-02  0.5428055630E-18 -0.9415183514E-02
  0.0000000000E+00  0.1000000000E+01  0.2570463033E+00 -0.1509154784E-01 -0.3638283254E-20 -0.1225551292E-02  0.6143640011E+15 -0.1506469616E-01 -0.3614465668E-20  0.7784216616E-03
  0.4000000000E+00  0.1000000000E+01  0.3530110648E+00  0.3882211030E+00 -0.4799632141E-18 -0.4195852482E+00  0.6143640011E+15  0.3933657398E+00 -0.4848358594E-18 -0.3983676127E+00
  0.3530110648E+00  0.1000000000E+01  0.3530110648E+00  0.2762106439E+00 -0.7563562248E-18 -0.4297958929E+00  0.6143640011E+15  0.2895223335E+00 -0.7513039271E-18 -0.4098753520E+00
  0.2570463033E+00  0.1000000000E+01  0.3530110648E+00  0.2132557036E+00 -0.1301742189E-17 -0.2852560481E+00  0.6143640011E+15  0.2360487845E+00 -0.1556459181E-17 -0.2677691587E+00
  0.1429536967E+00  0.1000000000E+01  0.3530110648E+00  0.7824935869E-01  0.5025619742E-19 -0.2774716518E+00  0.6143640011E+15  0.9164602685E-01 -0.6596904253E-19 -0.2640471678E+00
  0.4698893521E-01  0.1000000000E+01  0.3530110648E+00  0.1487560516E-01 -0.5952421961E-19 -0.7004042020E-01  0.6143640011E+15  0.1467308984E-01 -0.1231768072E-18 -0.6296397891E-01
  0.0000000000E+00  0.1000000000E+01  0.3530110648E+00 -0.1511046231E-01  0.4642474489E-20 -0.1693680847E-02  0.6143640011E+15 -0.1493512486E-01  0.5207011604E-20  0.3604417286E-03
  0.4000000000E+00  0.1000000000E+01  0.4000000000E+00  0.3559802845E+00  0.6815282321E-18 -0.4680564754E+00  0.6143640011E+15  0.3629239614E+00  0.6789821828E-18 -0.4481989755E+00
  0.3530110648E+00  0.1000000000E+01  0.4000000000E+00  0.3008767846E+00  0.4344576323E-19 -0.4772558929E+00  0.6143640011E+15  0.3157106610E+00  0.7946770077E-20 -0.4604669803E+00
  0.2570463033E+00  0.1000000000E+01  0.4000000000E+00  0.2227129613E+00 -0.2370454980E-17 -0.3402814853E+00  0.6143640011E+15  0.2465439859E+00 -0.2302965457E-17 -0.3266571273E+00
  0.1429536967E+00  0.1000000000E+01  0.4000000000E+00  0.9454827215E-01 -0.6465811515E-18 -0.3354323149E+00  0.6143640011E+15  0.1106378337E+00 -0.5459273507E-18 -0.3261006683E+00
  0.4698893521E-01  0.1000000000E+01  0.4000000000E+00  0.1222786624E-01 -0.4412584035E-18 -0.9864506765E-01  0.6143640011E+15  0.1467296341E-01 -0.4591663876E-18 -0.9437869264E-01
  0.0000000000E+00  0.1000000000E+01  0.4000000000E+00 -0.7705670898E-02  0.8680224921E-20 -0.3458323703E-02  0.6143640011E+15 -0.7651373842E-02  0.8969091122E-20 -0.1809531086E-02
ZONE I=6, J=6, K=1, F=POINT
  0.8000000000E+00  0.1000000000E+01  0.0000000000E+00  0.1787011033E-01 -0.6017687106E-19 -0.1124723089E-01  0.6143640011E+15  0.1811171465E-01 -0.6364782298E-19 -0.1161690711E-01
  0.7530110648E+00  0.1000000000E+01  0.0000000000E+00  0.1714605309E-02  0.1148297651E-18  0.5936613334E-02  0.6143640011E+15  0.1492030368E-02  0.1070220953E-18  0.5724603184E-02
  0.6570463033E+00  0.1000000000E+01  0.0000000000E+00 -0.7827273459E-03  0.1511725376E-19  0.3714234954E-04  0.6143640011E+15 -0.1603976441E-02  0.2966743354E-20 -0.1482408384E-03
  0.5429536967E+00  0.1000000000E+01  0.0000000000E+00  0.1001257168E-02  0.3329123860E-19  0.6441531848E-02  0.6143640011E+15 -0.5842296390E-03 -0.1116463630E-19  0.6303818932E-02
  0.4469889352E+00  0.1000000000E+01  0.0000000000E+00 -0.1287560961E-02 -0.1155613907E-19  0.4140549019E-03  0.6143640011E+15 -0.3240676365E-02 -0.7451848727E-19  0.2741708075E-03
  0.4000000000E+00  0.1000000000E+01  0.0000000000E+00  0.1559947755E-01  0.3484343140E-19  0.6848764288E-02  0.6143640011E+15  0.1397150311E-01  0.3450331286E-19  0.6625374490E-02
  0.8000000000E+00  0.1000000000E+01  0.4698893521E-01  0.3464428329E+00 -0.2763990512E-16  0.3147340995E-02  0.6143640011E+15  0.3440437430E+00 -0.2760605672E-16  0.3546775638E-01
  0.7530110648E+00  0.1000000000E+01  0.4698893521E-01  0.5566866490E+00 -0.2809851777E-16 -0.6262078690E-01  0.6143640011E+15  0.5543941157E+00 -0.2801182012E-16 -0.2770226553E-01
  0.6570463033E+00  0.1000000000E+01  0.4698893521E-01  0.3229734904E+00 -0.6063855647E-17 -0.3815384576E-01  0.6143640011E+15  0.3201933067E+00 -0.6044815601E-17 -0.1855862762E-02
  0.5429536967E+00  0.1000000000E+01  0.4698893521E-01  0.3280750570E+00  0.4752597612E-17 -0.2807332478E-01  0.6143640011E+15  0.3246482263E+00  0.4715593850E-17  0.6727043918E-02
  0.4469889352E+00  0.1000000000E+01  0.4698893521E-01  0.1730011146E+00  0.3418469240E-17 -0.1468308549E-01  0.6143640011E+15  0.1691327939E+00  0.3416363091E-17  0.1668094983E-01
  0.4000000000E+00  0.1000000000E+01  0.4698893521E-01  0.2751518841E+00  0.1913584600E-17 -0.5712062269E-01  0.6143640011E+15  0.2705392278E+00  0.1941324653E-17 -0.2652145696E-01
  0.8000000000E+00  0.1000000000E+01  0.1429536967E+00  0.7417612969E+00 -0.5338940269E-16 -0.3111113134E+00  0.6143640011E+15  0.7334602843E+00 -0.5361899984E-16 -0.2644039382E+00
  0.7530110648E+00  0.1000000000E+01  0.1429536967E+00  0.1095132328E+01 -0.3559427442E-16 -0.1991637536E+00  0.6143640011E+15  0.1090945980E+01 -0.3588550364E-16 -0.1517677668E+00
  0.6570463033E+00  0.1000000000E+01  0.1429536967E+00  0.7009675660E+00 -0.8516036284E-17 -0.2420625163E+00  0.6143640011E+15  0.6993798220E+00 -0.8415463017E-17 -0.1959632163E+00
  0.5429536967E+00  0.1000000000E+01  0.1429536967E+00  0.6540675760E+00  0.9069228956E-17 -0.1110835136E+00  0.6143640011E+15  0.6537118725E+00  0.9079913800E-17 -0.6803556204E-01
  0.4469889352E+00  0.1000000000E+01  0.1429536967E+00  0.3592547567E+00  0.8236205347E-17 -0.1812970232E+00  0.6143640011E+15  0.3593862003E+00  0.8043869263E-17 -0.1410916878E+00
  0.4000000000E+00  0.1000000000E+01  0.1429536967E+00  0.4937662778E+00  0.8665134880E-17 -0.1473410164E+00  0.6143640011E+15  0.4916221570E+00  0.8633525815E-17 -0.1093818304E+00
  0.8000000000E+00  0.1000000000E+01  0.2570463033E+00  0.1062397867E+01 -0.7687841173E-17 -0.6331998387E+00  0.6143640011E+15  0.1053039115E+01 -0.7727708483E-17 -0.5987843249E+00
  0.7530110648E+00  0.1000000000E+01  0.2570463033E+00  0.1066721280E+01 -0.7276895736E-17 -0.4476084060E+00  0.6143640011E+15  0.1063626207E+01 -0.6765857858E-17 -0.4124572456E+00
  0.6570463033E+00  0.1000000000E+01  0.2570463033E+00  0.7844223274E+00 -0.7596540560E-17 -0.4954974544E+00  0.6143640011E+15  0.7874700697E+00 -0.7674119429E-17 -0.4621484322E+00
  0.5429536967E+00  0.1000000000E+01  0.2570463033E+00  0.6268801831E+00 -0.4802624106E-18 -0.2819270841E+00  0.6143640011E+15  0.6302692630E+00 -0.4378557899E-18 -0.2544054000E+00
  0.4469889352E+00  0.1000000000E+01  0.2570463033E+00  0.4229347768E+00  0.8140221659E-19 -0.3790303608E+00  0.6143640011E+15  0.4261021176E+00  0.3989250363E-18 -0.3543824234E+00
  0.4000000000E+00  0.1000000000E+01  0.2570463033E+00  0.4389062047E+00  0.3431954313E-18 -0.3173822590E+00  0.6143640011E+15  0.4429405103E+00  0.3484031296E-18 -0.2938645840E+00
  0.8000000000E+00  0.1000000000E+01  0.3530110648E+00  0.8190079911E+00  0.3954037915E-17 -0.8186860301E+00  0.6143640011E+15  0.8059890860E+00  0.3954715789E-17 -0.7870549842E+00
  0.7530110648E+00  0.1000000000E+01  0.3530110648E+00  0.8841804501E+00  0.9175745726E-17 -0.6823095477E+00  0.6143640011E+15  0.8785765416E+00  0.8813969038E-17 -0.6484073757E+00
  0.6570463033E+00  0.1000000000E+01  0.3530110648E+00  0.6557185134E+00 -0.4151489325E-17 -0.6469921258E+00  0.6143640011E+15  0.6618613699E+00 -0.4854873615E-17 -0.6109996679E+00
  0.5429536967E+00  0.1000000000E+01  0.3530110648E+00  0.5460754519E+00 -0.7198108572E-17 -0.4184155479E+00  0.6143640011E+15  0.5558060121E+00 -0.8032307447E-17 -0.3878948950E+00
  0.4469889352E+00  0.1000000000E+01  0.3530110648E+00  0.3599105981E+00 -0.1012073579E-17 -0.4682789364E+00  0.6143640011E+15  0.3661643496E+00 -0.1200547042E-17 -0.4455054964E+00
  0.4000000000E+00  0.1000000000E+01  0.3530110648E+00  0.4219556128E+00 -0.5076391157E-18 -0.4194156808E+00  0.6143640011E+15  0.4272754551E+00 -0.5120074277E-18 -0.3981679203E+00
  0.8000000000E+00  0.1000000000E+01  0.4000000000E+00  0.7665026774E+00 -0.8142670717E-17 -0.9467212600E+00  0.6143640011E+15  0.7520054178E+00 -0.8149779558E-17 -0.9137234677E+00
  0.7530110648E+00  0.1000000000E+01  0.4000000000E+00  0.7175135243E+00 -0.3863627592E-17 -0.7544059729E+00  0.6143640011E+15  0.7103534219E+00 -0.3957641104E-17 -0.7211324520E+00
  0.6570463033E+00  0.1000000000E+01  0.4000000000E+00  0.5689869334E+00 -0.4065727449E-17 -0.7152296751E+00  0.6143640011E+15  0.5747408091E+00 -0.3860150793E-17 -0.6799588593E+00
  0.5429536967E+00  0.1000000000E+01  0.4000000000E+00  0.4735477843E+00  0.4711075283E-18 -0.5116520722E+00  0.6143640011E+15  0.4868709136E+00  0.1142986922E-17 -0.4784605915E+00
  0.4469889352E+00  0.1000000000E+01  0.4000000000E+00  0.3833468999E+00  0.1278113277E-17 -0.5295124414E+00  0.6143640011E+15  0.3937449940E+00  0.1389928540E-17 -0.5049487388E+00
  0.4000000000E+00  0.1000000000E+01  0.4000000000E+00  0.3695826217E+00  0.6992846193E-18 -0.4673550965E+00  0.6143640011E+15  0.3761700650E+00  0.6978570810E-18 -0.4475095843E+00
ZONE I=6, J=6, K=1, F=POINT
  0.1200000000E+01  0.1000000000E+01  0.0000000000E+00 -0.3394898091E-01  0.8222981472E-19  0.3710194179E-01  0.6143640011E+15 -0.3205067503E-01  0.8482331075E-19  0.3643110683E-01
  0.1153011065E+01  0.1000000000E+01  0.0000000000E+00 -0.6408673154E-02 -0.2076564295E-18 -0.9219569806E-02  0.6143640011E+15 -0.4917632638E-02 -0.1528845906E-18 -0.9212693288E-02
  0.1057046303E+01  0.1000000000E+01  0.0000000000E+00  0.1213971174E-02  0.1251466296E-19  0.6094680189E-02  0.6143640011E+15  0.2381659875E-02  0.4336025173E-19  0.6134021466E-02
  0.9429536967E+00  0.1000000000E+01  0.0000000000E+00 -0.2919545051E-02  0.3602052928E-19 -0.7966499501E-02  0.6143640011E+15 -0.2092662946E-02  0.3290663082E-19 -0.8077239991E-02
  0.8469889352E+00  0.1000000000E+01  0.0000000000E+00  0.2848979380E-02  0.5267586221E-20  0.5358629393E-02  0.6143640011E+15  0.3127599009E-02  0.3459628585E-20  0.5207510344E-02
  0.8000000000E+00  0.1000000000E+01  0.0000000000E+00 -0.2840742371E-01 -0.6979040271E-19 -0.1063569219E-01  0.6143640011E+15 -0.2828399883E-01 -0.7344317730E-19 -0.1101543334E-01
  0.1200000000E+01  0.1000000000E+01  0.4698893521E-01  0.1838666978E+01 -0.4237900546E-16 -0.1635222330E+00  0.6143640011E+15  0.1839963717E+01 -0.4240648758E-16 -0.1821563858E+00
  0.1153011065E+01  0.1000000000E+01  0.4698893521E-01  0.1191779850E+01 -0.2431706908E-16 -0.1601786953E-01  0.6143640011E+15  0.1189812643E+01 -0.2424338644E-16 -0.2870193764E-01
  0.1057046303E+01  0.1000000000E+01  0.4698893521E-01  0.1186397987E+01 -0.7029145677E-17 -0.5872981064E-01  0.6143640011E+15  0.1184136445E+01 -0.7065877341E-17 -0.5660198678E-01
  0.9429536967E+00  0.1000000000E+01  0.4698893521E-01  0.6986844484E+00 -0.1457736093E-16 -0.6166942756E-01  0.6143640011E+15  0.6966157204E+00 -0.1451156811E-16 -0.4433237381E-01
  0.8469889352E+00  0.1000000000E+01  0.4698893521E-01  0.6705927464E+00 -0.3187585430E-16 -0.7717348638E-01  0.6143640011E+15  0.6677651660E+00 -0.3177664683E-16 -0.4870235022E-01
  0.8000000000E+00  0.1000000000E+01  0.4698893521E-01  0.2826026180E+00 -0.2691739183E-16  0.5240055176E-02  0.6143640011E+15  0.2808611568E+00 -0.2689723786E-16  0.3750638431E-01
  0.1200000000E+01  0.1000000000E+01  0.1429536967E+00  0.3704386631E+01 -0.5733720899E-16 -0.3696972197E+00  0.6143640011E+15  0.3700238317E+01 -0.5714413469E-16 -0.3714803386E+00
  0.1153011065E+01  0.1000000000E+01  0.1429536967E+00  0.2384455367E+01 -0.6235329772E-16 -0.5715978611E+00  0.6143640011E+15  0.2369460514E+01 -0.6330704311E-16 -0.5689973567E+00
  0.1057046303E+01  0.1000000000E+01  0.1429536967E+00  0.2324708558E+01 -0.3166369122E-16 -0.3723152551E+00  0.6143640011E+15  0.2306845661E+01 -0.3163885057E-16 -0.3571201731E+00
  0.9429536967E+00  0.1000000000E+01  0.1429536967E+00  0.1392520186E+01 -0.2961656947E-16 -0.5519206840E+00  0.6143640011E+15  0.1376822318E+01 -0.2959988201E-16 -0.5197435580E+00
  0.8469889352E+00  0.1000000000E+01  0.1429536967E+00  0.1317214477E+01 -0.4936683654E-16 -0.2949588083E+00  0.6143640011E+15  0.1304166960E+01 -0.4928575903E-16 -0.2516546274E+00
  0.8000000000E+00  0.1000000000E+01  0.1429536967E+00  0.6565568272E+00 -0.5563566737E-16 -0.3126339818E+00  0.6143640011E+15  0.6494876449E+00 -0.5588788391E-16 -0.2659291463E+00
  0.1200000000E+01  0.1000000000E+01  0.2570463033E+00  0.2758061657E+01 -0.2016518497E-16 -0.1036021759E+01  0.6143640011E+15  0.2745501709E+01 -0.2010768687E-16 -0.1019666468E+01
  0.1153011065E+01  0.1000000000E+01  0.2570463033E+00  0.2413109225E+01 -0.5942517659E-16 -0.1285293483E+01  0.6143640011E+15  0.2391721517E+01 -0.5669955341E-16 -0.1268099069E+01
  0.1057046303E+01  0.1000000000E+01  0.2570463033E+00  0.2023388555E+01 -0.3809849912E-16 -0.9089694985E+00  0.6143640011E+15  0.1995443953E+01 -0.3816969807E-16 -0.8873817790E+00
  0.9429536967E+00  0.1000000000E+01  0.2570463033E+00  0.1509642689E+01 -0.3358521926E-16 -0.1095175786E+01  0.6143640011E+15  0.1483471842E+01 -0.3214577178E-16 -0.1066560727E+01
  0.8469889352E+00  0.1000000000E+01  0.2570463033E+00  0.1298960317E+01 -0.8759814466E-17 -0.6354210431E+00  0.6143640011E+15  0.1280591213E+01 -0.8974819162E-17 -0.6022062390E+00
  0.8000000000E+00  0.1000000000E+01  0.2570463033E+00  0.1022122327E+01 -0.7894657718E-17 -0.6353530396E+00  0.6143640011E+15  0.1012636378E+01 -0.7911992926E-17 -0.6007713621E+00
  0.1200000000E+01  0.1000000000E+01  0.3530110648E+00  0.2384172688E+01  0.9916923076E-18 -0.1730782844E+01  0.6143640011E+15  0.2370252138E+01  0.1019073914E-17 -0.1719413701E+01
  0.1153011065E+01  0.1000000000E+01  0.3530110648E+00  0.1876004915E+01 -0.1612581917E-16 -0.1661940798E+01  0.6143640011E+15  0.1850383494E+01 -0.1575327372E-16 -0.1648604996E+01
  0.1057046303E+01  0.1000000000E+01  0.3530110648E+00  0.1602093422E+01 -0.2223797180E-16 -0.1323831139E+01  0.6143640011E+15  0.1569262060E+01 -0.2248917241E-16 -0.1304740369E+01
  0.9429536967E+00  0.1000000000E+01  0.3530110648E+00  0.1146930644E+01 -0.2250487277E-16 -0.1300423126E+01  0.6143640011E+15  0.1116632617E+01 -0.2167904611E-16 -0.1276356739E+01
  0.8469889352E+00  0.1000000000E+01  0.3530110648E+00  0.1072811654E+01 -0.1089020957E-18 -0.9081380115E+00  0.6143640011E+15  0.1050496542E+01 -0.1041526296E-17 -0.8793814284E+00
  0.8000000000E+00  0.1000000000E+01  0.3530110648E+00  0.7700097326E+00  0.3997941556E-17 -0.8188567754E+00  0.6143640011E+15  0.7579681919E+00  0.4015478778E-17 -0.7873088335E+00
  0.1200000000E+01  0.1000000000E+01  0.4000000000E+00  0.1924307559E+01 -0.3735527022E-17 -0.1822964422E+01  0.6143640011E+15  0.1908946266E+01 -0.3708260541E-17 -0.1803029306E+01
  0.1153011065E+01  0.1000000000E+01  0.4000000000E+00  0.1771707325E+01 -0.5823325517E-17 -0.1940385230E+01  0.6143640011E+15  0.1743783247E+01 -0.6343873455E-17 -0.1920129807E+01
  0.1057046303E+01  0.1000000000E+01  0.4000000000E+00  0.1357726009E+01 -0.1615771339E-16 -0.1492475896E+01  0.6143640011E+15  0.1322797947E+01 -0.1636540616E-16 -0.1469785672E+01
  0.9429536967E+00  0.1000000000E+01  0.4000000000E+00  0.1027530019E+01 -0.2548993062E-16 -0.1456494147E+01  0.6143640011E+15  0.9954123888E+00 -0.2462955021E-16 -0.1430724357E+01
  0.8469889352E+00  0.1000000000E+01  0.4000000000E+00  0.8606419221E+00 -0.1457412358E-16 -0.9983010016E+00  0.6143640011E+15  0.8357804740E+00 -0.1488770607E-16 -0.9688128062E+00
  0.8000000000E+00  0.1000000000E+01  0.4000000000E+00  0.7597621617E+00 -0.8131514349E-17 -0.9495307126E+00  0.6143640011E+15  0.7444211437E+00 -0.8132706010E-17 -0.9164161341E+00
ZONE I=6, J=6, K=1, F=POINT
  0.1600000000E+01  0.1000000000E+01  0.0000000000E+00  0.1294528599E+00 -0.8770681988E-18 -0.7329365164E-01  0.6143640011E+15  0.1304098759E+00 -0.9930383405E-18 -0.7259631317E-01
  0.1553011065E+01  0.1000000000E+01  0.0000000000E+00  0.7903196462E-02 -0.1304804565E-17  0.4537736825E-01  0.6143640011E+15  0.9632960774E-02 -0.1417119326E-17  0.4553117821E-01
  0.1457046303E+01  0.1000000000E+01  0.0000000000E+00 -0.9994818880E-02 -0.1429233825E-19 -0.3142057969E-02  0.6143640011E+15 -0.8004969042E-02 -0.7656737741E-19 -0.3070832101E-02
  0.1342953697E+01  0.1000000000E+01  0.0000000000E+00  0.3346023289E-02  0.3275971778E-18  0.2994797626E-01  0.6143640011E+15  0.5563796645E-02  0.4511345994E-18  0.2996430967E-01
  0.1246988935E+01  0.1000000000E+01  0.0000000000E+00 -0.9590973030E-02  0.1044639327E-18 -0.7912978269E-02  0.6143640011E+15 -0.7288050022E-02  0.1159623040E-18 -0.7950442857E-02
  0.1200000000E+01  0.1000000000E+01  0.0000000000E+00  0.5727203320E-01  0.8664631702E-19  0.3701248100E-01  0.6143640011E+15  0.5915147093E-01  0.8998840537E-19  0.3634031614E-01
  0.1600000000E+01  0.1000000000E+01  0.4698893521E-01  0.2513748946E+01 -0.8409333507E-16  0.2333818644E+00  0.6143640011E+15  0.2513181385E+01 -0.8407972488E-16  0.2077375948E+00
  0.1553011065E+01  0.1000000000E+01  0.4698893521E-01  0.2989381044E+01 -0.4064258737E-16 -0.2714330415E+00  0.6143640011E+15  0.2990753418E+01 -0.4059355149E-16 -0.2962862548E+00
  0.1457046303E+01  0.1000000000E+01  0.4698893521E-01  0.1980237154E+01 -0.5330594003E-17 -0.7089863657E-01  0.6143640011E+15  0.1982807517E+01 -0.5432927599E-17 -0.9295365775E-01
  0.1342953697E+01  0.1000000000E+01  0.4698893521E-01  0.2001639991E+01  0.3228031177E-16 -0.3621142699E-01  0.6143640011E+15  0.2005816692E+01  0.3230177368E-16 -0.5689462359E-01
  0.1246988935E+01  0.1000000000E+01  0.4698893521E-01  0.1492912942E+01 -0.4727479857E-17  0.1495169199E-01  0.6143640011E+15  0.1497331177E+01 -0.4520676901E-17 -0.5541482518E-02
  0.1200000000E+01  0.1000000000E+01  0.4698893521E-01  0.1940630932E+01 -0.4677351554E-16 -0.1692158302E+00  0.6143640011E+15  0.1941133248E+01 -0.4681626293E-16 -0.1875374767E+00
  0.1600000000E+01  0.1000000000E+01  0.1429536967E+00  0.4116763394E+01 -0.2649726654E-15 -0.1934097304E+01  0.6143640011E+15  0.4107793036E+01 -0.2648473887E-15 -0.1939107122E+01
  0.1553011065E+01  0.1000000000E+01  0.1429536967E+00  0.5860061322E+01 -0.1631297920E-15 -0.9920956540E+00  0.6143640011E+15  0.5860660168E+01 -0.1631566069E-15 -0.9976346465E+00
  0.1457046303E+01  0.1000000000E+01  0.1429536967E+00  0.3870871339E+01  0.3324343731E-16 -0.8867445129E+00  0.6143640011E+15  0.3873456485E+01  0.3314086663E-16 -0.8916682322E+00
  0.1342953697E+01  0.1000000000E+01  0.1429536967E+00  0.4058068033E+01  0.1112098581E-15 -0.6521247645E-01  0.6143640011E+15  0.4063683306E+01  0.1113902587E-15 -0.7093052222E-01
  0.1246988935E+01  0.1000000000E+01  0.1429536967E+00  0.2965292515E+01  0.2827941236E-16 -0.4972763824E+00  0.6143640011E+15  0.2967956839E+01  0.2829227450E-16 -0.5019540864E+00
  0.1200000000E+01  0.1000000000E+01  0.1429536967E+00  0.3871067980E+01 -0.6159393583E-16 -0.3649767001E+00  0.6143640011E+15  0.3859723067E+01 -0.6131506304E-16 -0.3671586461E+00
  0.1600000000E+01  0.1000000000E+01  0.2570463033E+00  0.7138132820E+01  0.4064440632E-16 -0.3886592971E+01  0.6143640011E+15  0.7144909351E+01  0.4064542771E-16 -0.3873026589E+01
  0.1553011065E+01  0.1000000000E+01  0.2570463033E+00  0.6140927765E+01  0.5948602113E-16 -0.2496049614E+01  0.6143640011E+15  0.6146553268E+01  0.5970581005E-16 -0.2479218883E+01
  0.1457046303E+01  0.1000000000E+01  0.2570463033E+00  0.4983151622E+01  0.1598859393E-15 -0.2120558201E+01  0.6143640011E+15  0.4989723903E+01  0.1600498553E-15 -0.2107184111E+01
  0.1342953697E+01  0.1000000000E+01  0.2570463033E+00  0.3814693119E+01  0.1329245145E-15 -0.7227723070E+00  0.6143640011E+15  0.3822286060E+01  0.1332455025E-15 -0.7115558801E+00
  0.1246988935E+01  0.1000000000E+01  0.2570463033E+00  0.2982983012E+01  0.3593231214E-16 -0.1274706700E+01  0.6143640011E+15  0.2981507970E+01  0.3598362267E-16 -0.1260106301E+01
  0.1200000000E+01  0.1000000000E+01  0.2570463033E+00  0.2802740028E+01 -0.2055104319E-16 -0.1028794661E+01  0.6143640011E+15  0.2789348482E+01 -0.2046847386E-16 -0.1013838117E+01
  0.1600000000E+01  0.1000000000E+01  0.3530110648E+00  0.4893969914E+01  0.7401560187E-16 -0.4445368654E+01  0.6143640011E+15  0.4892589017E+01  0.7407986861E-16 -0.4439298555E+01
  0.1553011065E+01  0.1000000000E+01  0.3530110648E+00  0.5084683072E+01  0.9130815883E-16 -0.3904740186E+01  0.6143640011E+15  0.5091898764E+01  0.9138557026E-16 -0.3898987692E+01
  0.1457046303E+01  0.1000000000E+01  0.3530110648E+00  0.4092248861E+01  0.1275504560E-15 -0.2999164303E+01  0.6143640011E+15  0.4102407309E+01  0.1279320344E-15 -0.2995289132E+01
  0.1342953697E+01  0.1000000000E+01  0.3530110648E+00  0.3308860174E+01  0.1147203223E-15 -0.1830773576E+01  0.6143640011E+15  0.3314039344E+01  0.1147894839E-15 -0.1824698857E+01
  0.1246988935E+01  0.1000000000E+01  0.3530110648E+00  0.2342354861E+01  0.3320668886E-16 -0.1804641083E+01  0.6143640011E+15  0.2337240438E+01  0.3339109650E-16 -0.1794450103E+01
  0.1200000000E+01  0.1000000000E+01  0.3530110648E+00  0.2461440629E+01  0.1034953892E-17 -0.1731502835E+01  0.6143640011E+15  0.2445370623E+01  0.1055276344E-17 -0.1719775511E+01
  0.1600000000E+01  0.1000000000E+01  0.4000000000E+00  0.4946852544E+01  0.4823961536E-16 -0.5275955133E+01  0.6143640011E+15  0.4944646097E+01  0.4826417037E-16 -0.5267237624E+01
  0.1553011065E+01  0.1000000000E+01  0.4000000000E+00  0.4275169579E+01  0.8031008799E-16 -0.3917352847E+01  0.6143640011E+15  0.4284024311E+01  0.8032495257E-16 -0.3909829459E+01
  0.1457046303E+01  0.1000000000E+01  0.4000000000E+00  0.3819154912E+01  0.9190651844E-16 -0.3397016210E+01  0.6143640011E+15  0.3828065393E+01  0.9199823228E-16 -0.3386748167E+01
  0.1342953697E+01  0.1000000000E+01  0.4000000000E+00  0.2882089209E+01  0.1028329600E-15 -0.2036635484E+01  0.6143640011E+15  0.2885878385E+01  0.1031114773E-15 -0.2022572652E+01
  0.1246988935E+01  0.1000000000E+01  0.4000000000E+00  0.2275519761E+01  0.2090629035E-16 -0.2157344367E+01  0.6143640011E+15  0.2268397533E+01  0.2102857494E-16 -0.2138654392E+01
  0.1200000000E+01  0.1000000000E+01  0.4000000000E+00  0.1903318772E+01 -0.3481825961E-17 -0.1813591645E+01  0.6143640011E+15  0.1887282433E+01 -0.3464174718E-17 -0.1794754950E+01
ZONE I=6, J=6, K=1, F=POINT
  0.2000000000E+01  0.1000000000E+01  0.0000000000E+00  0.2400349138E+01  0.6599894582E-19  0.2123206425E+02  0.6143640011E+15  0.2428148999E+01  0.9054806200E-19  0.2215328165E+02
  0.1953011065E+01  0.1000000000E+01  0.0000000000E+00  0.1289800672E+01 -0.3699456006E-16 -0.1366193841E+00  0.6143640011E+15  0.1294924896E+01 -0.3587630939E-16 -0.1504807365E+00
  0.1857046303E+01  0.1000000000E+01  0.0000000000E+00 -0.3095803727E+00 -0.1897955118E-16  0.1548660925E+00  0.6143640011E+15 -0.3094761843E+00 -0.1946146331E-16  0.1523760388E+00
  0.1742953697E+01  0.1000000000E+01  0.0000000000E+00  0.1313374663E+00  0.3336451461E-18 -0.3948513801E-01  0.6143640011E+15  0.1330772600E+00  0.2758407706E-18 -0.3883176569E-01
  0.1646988935E+01  0.1000000000E+01  0.0000000000E+00 -0.1298739313E+00  0.4619081867E-18  0.6041608390E-01  0.6143640011E+15 -0.1280304993E+00  0.4210909969E-18  0.5964269634E-01
  0.1600000000E+01  0.1000000000E+01  0.0000000000E+00  0.8332345481E-01 -0.9569961303E-18 -0.8536194520E-01  0.6143640011E+15  0.8430190277E-01 -0.1074970849E-17 -0.8330320528E-01
  0.2000000000E+01  0.1000000000E+01  0.4698893521E-01 -0.1601093133E-01  0.7401748214E-18  0.4848111669E+02  0.6143640011E+15 -0.5873512624E-01  0.6773379186E-18  0.4865673212E+02
  0.1953011065E+01  0.1000000000E+01  0.4698893521E-01  0.1101963005E+02  0.1516571569E-15  0.1532070178E+01  0.6143640011E+15  0.1100820160E+02  0.1504531663E-15  0.1546846772E+01
  0.1857046303E+01  0.1000000000E+01  0.4698893521E-01  0.1177977390E+02  0.3352819041E-15 -0.1893006361E+01  0.6143640011E+15  0.1178352467E+02  0.3355866187E-15 -0.1901428804E+01
  0.1742953697E+01  0.1000000000E+01  0.4698893521E-01  0.5600693750E+01  0.1117335388E-16 -0.7096134506E+00  0.6143640011E+15  0.5606409374E+01  0.1146101147E-16 -0.7323955412E+00
  0.1646988935E+01  0.1000000000E+01  0.4698893521E-01  0.4056427507E+01 -0.1093740628E-15 -0.6565524236E+00  0.6143640011E+15  0.4056207440E+01 -0.1095224501E-15 -0.6798876035E+00
  0.1600000000E+01  0.1000000000E+01  0.4698893521E-01  0.2344298581E+01 -0.8101361196E-16  0.2190481355E+00  0.6143640011E+15  0.2352995735E+01 -0.8080745413E-16  0.1882744702E+00
  0.2000000000E+01  0.1000000000E+01  0.1429536967E+00 -0.2822910984E+00  0.2286551732E-17  0.5050005544E+02  0.6143640011E+15 -0.2593651366E+00  0.2207403701E-17  0.5043791723E+02
  0.1953011065E+01  0.1000000000E+01  0.1429536967E+00  0.2711839066E+01 -0.4909442394E-15  0.1648380864E+02  0.6143640011E+15  0.2704045739E+01 -0.4904709445E-15  0.1651975410E+02
  0.1857046303E+01  0.1000000000E+01  0.1429536967E+00  0.1204843521E+02 -0.2531027990E-15 -0.4058391639E+01  0.6143640011E+15  0.1205610865E+02 -0.2536685028E-15 -0.4050840048E+01
  0.1742953697E+01  0.1000000000E+01  0.1429536967E+00  0.8340415411E+01  0.1105209492E-15 -0.4665599629E+01  0.6143640011E+15  0.8353077783E+01  0.1106710492E-15 -0.4668471689E+01
  0.1646988935E+01  0.1000000000E+01  0.1429536967E+00  0.7259454232E+01 -0.1195423033E-15 -0.2355222440E+01  0.6143640011E+15  0.7264806150E+01 -0.1192255620E-15 -0.2359171564E+01
  0.1600000000E+01  0.1000000000E+01  0.1429536967E+00  0.3749892029E+01 -0.2812124985E-15 -0.1931345783E+01  0.6143640011E+15  0.3772976416E+01 -0.2816667603E-15 -0.1942490541E+01
  0.2000000000E+01  0.1000000000E+01  0.2570463033E+00  0.1432265006E-01  0.9944155946E-18  0.4986749226E+02  0.6143640011E+15  0.1379535756E-01  0.9058154355E-18  0.4987400486E+02