TITLE = "Generated from ../MESH/Convergence_0000000000.hmesh and Convergence_0000000800.hsol"
VARIABLES = "x","y","z","veloT_x","veloT_y","veloT_z","slr_4","velo_x","velo_y","velo_z"
ZONE I=6, J=6, K=1, F=POINT
  0.4000000000E+00  0.1000000000E+01  0.0000000000E+00 -0.1467711749E-01  0.3034555819E-19  0.6228413015E-02  0.6319431775E+15 -0.1318132506E-01  0.3019483831E-19  0.6480440290E-02
  0.3530110648E+00  0.1000000000E+01  0.0000000000E+00 -0.4752264388E-02  0.8940232109E-20 -0.7052362523E-03  0.6319431775E+15 -0.2228679597E-02  0.8323101770E-20 -0.5873206915E-03
  0.2570463033E+00  0.1000000000E+01  0.0000000000E+00 -0.3316730960E-02  0.8038311667E-21  0.2107250852E-02  0.6319431775E+15 -0.7596284864E-03  0.8654268666E-21  0.2118991306E-02
  0.1429536967E+00  0.1000000000E+01  0.0000000000E+00 -0.5165033088E-02  0.2367592071E-22 -0.1259136964E-02  0.6319431775E+15 -0.1715550289E-02  0.1305209677E-21 -0.1198921333E-02
  0.4698893521E-01  0.1000000000E+01  0.0000000000E+00 -0.2052722841E-02 -0.2325555823E-20  0.2508164500E-02  0.6319431775E+15  0.1106013940E-02 -0.2527453418E-20  0.2238996960E-02
  0.0000000000E+00  0.1000000000E+01  0.0000000000E+00 -0.8375394107E-02  0.1127187996E-22  0.2839469006E-02  0.6319431775E+15 -0.8111566425E-02  0.1229866203E-22  0.2572763064E-02
  0.4000000000E+00  0.1000000000E+01  0.4698893521E-01  0.2154864583E+00  0.2048188305E-17 -0.1310901331E-01  0.6319431775E+15  0.2149462091E+00  0.2053542626E-17 -0.3373107062E-01
  0.3530110648E+00  0.1000000000E+01  0.4698893521E-01  0.6283938196E-01  0.1698519065E-17  0.2773431248E-01  0.6319431775E+15  0.6273381265E-01  0.1726354709E-17  0.7278198027E-02
  0.2570463033E+00  0.1000000000E+01  0.4698893521E-01  0.4579483414E-01  0.3640758570E-18  0.1675228347E-01  0.6319431775E+15  0.4472126047E-01  0.3411275081E-18 -0.3051386368E-03
  0.1429536967E+00  0.1000000000E+01  0.4698893521E-01 -0.2475407559E-01 -0.5025712723E-19  0.1326493944E-01  0.6319431775E+15 -0.2566234175E-01 -0.5761090215E-19  0.5496583319E-02
  0.4698893521E-01  0.1000000000E+01  0.4698893521E-01 -0.1272804969E-01 -0.3426737434E-19  0.3369399265E-02  0.6319431775E+15 -0.1243312098E-01 -0.3260830922E-19  0.1427050890E-02
  0.0000000000E+00  0.1000000000E+01  0.4698893521E-01 -0.1997568233E-01  0.8330759681E-21  0.6295806480E-02  0.6319431775E+15 -0.1978954414E-01  0.8962314100E-21  0.3224527345E-02
  0.4000000000E+00  0.1000000000E+01  0.1429536967E+00  0.4146032003E+00  0.7610952808E-17 -0.8738587935E-01  0.6319431775E+15  0.4136955862E+00  0.7596015207E-17 -0.9553891150E-01
  0.3530110648E+00  0.1000000000E+01  0.1429536967E+00  0.1625396040E+00  0.3469041503E-17 -0.1158345901E+00  0.6319431775E+15  0.1623707831E+00  0.3531700890E-17 -0.1244631427E+00
  0.2570463033E+00  0.1000000000E+01  0.1429536967E+00  0.1195366569E+00  0.6320487615E-18 -0.3578862275E-01  0.6319431775E+15  0.1120141871E+00  0.6268573834E-18 -0.4217835685E-01
  0.1429536967E+00  0.1000000000E+01  0.1429536967E+00 -0.1382774465E-01  0.2131480826E-19 -0.5038807500E-01  0.6319431775E+15 -0.2141480743E-01  0.2142347029E-19 -0.5060322512E-01
  0.4698893521E-01  0.1000000000E+01  0.1429536967E+00 -0.2083339568E-01 -0.7173152269E-19  0.2076954338E-01  0.6319431775E+15 -0.2089143071E-01 -0.6992742155E-19  0.2041451022E-01
  0.0000000000E+00  0.1000000000E+01  0.1429536967E+00 -0.2226453123E-01 -0.2891476094E-21  0.3057103421E-02  0.6319431775E+15 -0.2237569011E-01 -0.1308651400E-21 -0.2855111676E-03
  0.4000000000E+00  0.1000000000E+01  0.2570463033E+00  0.3883145382E+00  0.2494618799E-18 -0.2764570879E+00  0.6319431775E+15  0.3877609348E+00  0.2558800046E-18 -0.2766481547E+00
  0.3530110648E+00  0.1000000000E+01  0.2570463033E+00  0.2668744446E+00 -0.3897015788E-18 -0.3076473628E+00  0.6319431775E+15  0.2672357770E+00 -0.3928808538E-18 -0.3077797662E+00
  0.2570463033E+00  0.1000000000E+01  0.2570463033E+00  0.1993031605E+00 -0.3714103921E-18 -0.1502193472E+00  0.6319431775E+15  0.1886915770E+00 -0.3718360952E-18 -0.1499204696E+00
  0.1429536967E+00  0.1000000000E+01  0.2570463033E+00  0.5649965678E-01  0.1966304748E-18 -0.1517732303E+00  0.6319431775E+15  0.4858409562E-01  0.1966518975E-18 -0.1509966704E+00
  0.4698893521E-01  0.1000000000E+01  0.2570463033E+00 -0.4548866445E-02  0.6194501556E-18  0.6895763411E-02  0.6319431775E+15 -0.8860738259E-03  0.6191075785E-18  0.6814661858E-02
  0.0000000000E+00  0.1000000000E+01  0.2570463033E+00 -0.1533860379E-01 -0.3788294280E-20  0.2245806570E-02  0.6319431775E+15 -0.1534688377E-01 -0.3842523291E-20 -0.1171508341E-03
  0.4000000000E+00  0.1000000000E+01  0.3530110648E+00  0.3802615558E+00 -0.4713827101E-18 -0.3697679193E+00  0.6319431775E+15  0.3805861804E+00 -0.4714481203E-18 -0.3794619182E+00
  0.3530110648E+00  0.1000000000E+01  0.3530110648E+00  0.2835534098E+00 -0.7407151377E-18 -0.3816748255E+00  0.6319431775E+15  0.2831850144E+00 -0.7448177178E-18 -0.3913862897E+00
  0.2570463033E+00  0.1000000000E+01  0.3530110648E+00  0.2446048618E+00 -0.1696474553E-17 -0.2373066455E+00  0.6319431775E+15  0.2331816616E+00 -0.1563799266E-17 -0.2465668947E+00
  0.1429536967E+00  0.1000000000E+01  0.3530110648E+00  0.9244899108E-01 -0.1333738285E-18 -0.2369259589E+00  0.6319431775E+15  0.8226468520E-01 -0.7861227557E-19 -0.2434805248E+00
  0.4698893521E-01  0.1000000000E+01  0.3530110648E+00  0.5796120557E-02 -0.2014010086E-18 -0.4641890151E-01  0.6319431775E+15  0.6980849629E-02 -0.1910020309E-18 -0.4758475354E-01
  0.0000000000E+00  0.1000000000E+01  0.3530110648E+00 -0.1504226587E-01  0.5948143847E-20  0.2067199026E-02  0.6319431775E+15 -0.1516404364E-01  0.6017979551E-20 -0.1208516875E-03
  0.4000000000E+00  0.1000000000E+01  0.4000000000E+00  0.3534972403E+00  0.6042990826E-18 -0.4026435642E+00  0.6319431775E+15  0.3533177340E+00  0.6068557627E-18 -0.4018850741E+00
  0.3530110648E+00  0.1000000000E+01  0.4000000000E+00  0.3143478476E+00 -0.1444645224E-18 -0.4177783791E+00  0.6319431775E+15  0.3143988348E+00 -0.1614317148E-18 -0.4172092418E+00
  0.2570463033E+00  0.1000000000E+01  0.4000000000E+00  0.2589800517E+00 -0.2352970915E-17 -0.2881667175E+00  0.6319431775E+15  0.2474121302E+00 -0.2330822809E-17 -0.2888493031E+00
  0.1429536967E+00  0.1000000000E+01  0.4000000000E+00  0.1132315385E+00 -0.5391062755E-18 -0.2949199695E+00  0.6319431775E+15  0.1013405056E+00 -0.5680509194E-18 -0.2951478145E+00
  0.4698893521E-01  0.1000000000E+01  0.4000000000E+00  0.6431750302E-02 -0.5469591483E-18 -0.7899915847E-01  0.6319431775E+15  0.5775150479E-02 -0.5460362861E-18 -0.7774325138E-01
  0.0000000000E+00  0.1000000000E+01  0.4000000000E+00 -0.7519198858E-02  0.9658677259E-20 -0.1510286591E-03  0.6319431775E+15 -0.7735050256E-02  0.9500772012E-20 -0.1230840408E-02
ZONE I=6, J=6, K=1, F=POINT
  0.8000000000E+00  0.1000000000E+01  0.0000000000E+00  0.1732719018E-01 -0.5894749658E-19 -0.1073722696E-01  0.6319431775E+15  0.1777938107E-01 -0.6198090186E-19 -0.1157637507E-01
  0.7530110648E+00  0.1000000000E+01  0.0000000000E+00  0.7272555357E-03  0.9381056178E-19  0.5694297286E-02  0.6319431775E+15  0.1240849422E-02  0.1026106066E-18  0.5517098477E-02
  0.6570463033E+00  0.1000000000E+01  0.0000000000E+00 -0.2147167610E-02 -0.4597079121E-20 -0.6237431643E-04  0.6319431775E+15 -0.1439040990E-02  0.5743884805E-20  0.1354803631E-04
  0.5429536967E+00  0.1000000000E+01  0.0000000000E+00 -0.1091463151E-02 -0.2594042831E-19  0.6406288372E-02  0.6319431775E+15 -0.1352706016E-03 -0.2559762481E-21  0.6493734907E-02
  0.4469889352E+00  0.1000000000E+01  0.0000000000E+00 -0.4079487753E-02 -0.1026837749E-18  0.1863042243E-03  0.6319431775E+15 -0.2728642697E-02 -0.6126304586E-19  0.1983636738E-03
  0.4000000000E+00  0.1000000000E+01  0.0000000000E+00  0.1288572850E-01  0.3440724075E-19  0.5891444830E-02  0.6319431775E+15  0.1463473175E-01  0.3417242966E-19  0.6137650372E-02
  0.8000000000E+00  0.1000000000E+01  0.4698893521E-01  0.3475219510E+00 -0.2775603146E-16  0.5227140234E-01  0.6319431775E+15  0.3470359358E+00 -0.2774335177E-16  0.3153940917E-01
  0.7530110648E+00  0.1000000000E+01  0.4698893521E-01  0.5634144163E+00 -0.2835401171E-16 -0.1029328277E-01  0.6319431775E+15  0.5625681922E+00 -0.2828571120E-16 -0.3161699462E-01
  0.6570463033E+00  0.1000000000E+01  0.4698893521E-01  0.3225079401E+00 -0.6080091252E-17  0.1533925019E-01  0.6319431775E+15  0.3216349363E+00 -0.6121841996E-17 -0.5843230732E-02
  0.5429536967E+00  0.1000000000E+01  0.4698893521E-01  0.3220148964E+00  0.4767259472E-17  0.2402112627E-01  0.6319431775E+15  0.3213592650E+00  0.4741855283E-17  0.2438865590E-02
  0.4469889352E+00  0.1000000000E+01  0.4698893521E-01  0.1600247466E+00  0.3297625462E-17  0.3121131742E-01  0.6319431775E+15  0.1594639402E+00  0.3320074582E-17  0.9908022953E-02
  0.4000000000E+00  0.1000000000E+01  0.4698893521E-01  0.2609813886E+00  0.1787437861E-17 -0.1388213635E-01  0.6319431775E+15  0.2601981433E+00  0.1794377523E-17 -0.3450076948E-01
  0.8000000000E+00  0.1000000000E+01  0.1429536967E+00  0.7014340040E+00 -0.5294664164E-16 -0.2370902338E+00  0.6319431775E+15  0.7019799651E+00 -0.5292620830E-16 -0.2569265347E+00
  0.7530110648E+00  0.1000000000E+01  0.1429536967E+00  0.1070647938E+01 -0.3543698052E-16 -0.1253490406E+00  0.6319431775E+15  0.1067423016E+01 -0.3530162658E-16 -0.1432375064E+00
  0.6570463033E+00  0.1000000000E+01  0.1429536967E+00  0.6795846227E+00 -0.8527710576E-17 -0.1728563824E+00  0.6319431775E+15  0.6772760778E+00 -0.8433587937E-17 -0.1850340769E+00
  0.5429536967E+00  0.1000000000E+01  0.1429536967E+00  0.6351351362E+00  0.9132434096E-17 -0.4543540869E-01  0.6319431775E+15  0.6346441086E+00  0.9106980566E-17 -0.5594104004E-01
  0.4469889352E+00  0.1000000000E+01  0.1429536967E+00  0.3372457917E+00  0.7738080478E-17 -0.1201075698E+00  0.6319431775E+15  0.3348177336E+00  0.7804972794E-17 -0.1291941786E+00
  0.4000000000E+00  0.1000000000E+01  0.1429536967E+00  0.4684652313E+00  0.8371937351E-17 -0.8683986054E-01  0.6319431775E+15  0.4669127161E+00  0.8348304822E-17 -0.9498833051E-01
  0.8000000000E+00  0.1000000000E+01  0.2570463033E+00  0.9659259546E+00 -0.6149731710E-17 -0.5645578865E+00  0.6319431775E+15  0.9652720644E+00 -0.6169691028E-17 -0.5771032826E+00
  0.7530110648E+00  0.1000000000E+01  0.2570463033E+00  0.9895797324E+00 -0.5448774820E-17 -0.3832317506E+00  0.6319431775E+15  0.9780875687E+00 -0.5550486214E-17 -0.3935169781E+00
  0.6570463033E+00  0.1000000000E+01  0.2570463033E+00  0.7299760559E+00 -0.7736963879E-17 -0.4418551296E+00  0.6319431775E+15  0.7220637964E+00 -0.7500355377E-17 -0.4457034930E+00
  0.5429536967E+00  0.1000000000E+01  0.2570463033E+00  0.5932506917E+00 -0.4934166724E-18 -0.2355805441E+00  0.6319431775E+15  0.5918422767E+00 -0.5233209266E-18 -0.2357955493E+00
  0.4469889352E+00  0.1000000000E+01  0.2570463033E+00  0.3988162874E+00  0.5809878998E-18 -0.3366351002E+00  0.6319431775E+15  0.3949976072E+00  0.5884679035E-18 -0.3361518957E+00
  0.4000000000E+00  0.1000000000E+01  0.2570463033E+00  0.4209670039E+00  0.2865331666E-18 -0.2758480216E+00  0.6319431775E+15  0.4207379458E+00  0.2919591270E-18 -0.2760617560E+00
  0.8000000000E+00  0.1000000000E+01  0.3530110648E+00  0.6976969724E+00  0.5311914924E-17 -0.7358384854E+00  0.6319431775E+15  0.6977862889E+00  0.5286772941E-17 -0.7491715217E+00
  0.7530110648E+00  0.1000000000E+01  0.3530110648E+00  0.7837824590E+00  0.9301933776E-17 -0.6029939292E+00  0.6319431775E+15  0.7704849323E+00  0.8499474533E-17 -0.6174189237E+00
  0.6570463033E+00  0.1000000000E+01  0.3530110648E+00  0.5906184974E+00 -0.4839611989E-17 -0.5771264188E+00  0.6319431775E+15  0.5796503168E+00 -0.4217928144E-17 -0.5927720126E+00
  0.5429536967E+00  0.1000000000E+01  0.3530110648E+00  0.5140049404E+00 -0.8584919821E-17 -0.3559934028E+00  0.6319431775E+15  0.5105788088E+00 -0.8228181020E-17 -0.3690628815E+00
  0.4469889352E+00  0.1000000000E+01  0.3530110648E+00  0.3445477292E+00 -0.1341083579E-17 -0.4159443139E+00  0.6319431775E+15  0.3407984721E+00 -0.1257459483E-17 -0.4264179103E+00
  0.4000000000E+00  0.1000000000E+01  0.3530110648E+00  0.4154397540E+00 -0.5006677828E-18 -0.3695689965E+00  0.6319431775E+15  0.4158737929E+00 -0.5032129759E-18 -0.3792682650E+00
  0.8000000000E+00  0.1000000000E+01  0.4000000000E+00  0.6423149644E+00 -0.7330629790E-17 -0.8458237725E+00  0.6319431775E+15  0.6425351488E+00 -0.7332142425E-17 -0.8505328264E+00
  0.7530110648E+00  0.1000000000E+01  0.4000000000E+00  0.6136273692E+00 -0.3383163134E-17 -0.6606847391E+00  0.6319431775E+15  0.6023644292E+00 -0.3501556649E-17 -0.6671436130E+00
  0.6570463033E+00  0.1000000000E+01  0.4000000000E+00  0.5014340757E+00 -0.3613091762E-17 -0.6328715569E+00  0.6319431775E+15  0.4910700977E+00 -0.3683984760E-17 -0.6438415743E+00
  0.5429536967E+00  0.1000000000E+01  0.4000000000E+00  0.4452850791E+00  0.1283100747E-17 -0.4352332769E+00  0.6319431775E+15  0.4399081794E+00  0.9579515897E-18 -0.4445741919E+00
  0.4469889352E+00  0.1000000000E+01  0.4000000000E+00  0.3754830471E+00  0.1462380913E-17 -0.4607080539E+00  0.6319431775E+15  0.3692835180E+00  0.1366042905E-17 -0.4631363438E+00
  0.4000000000E+00  0.1000000000E+01  0.4000000000E+00  0.3672759854E+00  0.6227693410E-18 -0.4019361155E+00  0.6319431775E+15  0.3664089270E+00  0.6244897429E-18 -0.4011845243E+00
ZONE I=6, J=6, K=1, F=POINT
  0.1200000000E+01  0.1000000000E+01  0.0000000000E+00 -0.3240077862E-01  0.9015735624E-19  0.3660905228E-01  0.6319431775E+15 -0.3240502631E-01  0.9301907439E-19  0.3669683481E-01
  0.1153011065E+01  0.1000000000E+01  0.0000000000E+00 -0.4870734600E-02 -0.1472253096E-18 -0.9376823715E-02  0.6319431775E+15 -0.4811708388E-02 -0.1456842773E-18 -0.9226999191E-02
  0.1057046303E+01  0.1000000000E+01  0.0000000000E+00  0.2291416397E-02  0.4511344949E-19  0.6056765645E-02  0.6319431775E+15  0.2227131966E-02  0.4297333509E-19  0.6111696931E-02
  0.9429536967E+00  0.1000000000E+01  0.0000000000E+00 -0.2461579714E-02  0.3415179844E-19 -0.8013019865E-02  0.6319431775E+15 -0.2482072062E-02  0.3415547729E-19 -0.8009177325E-02
  0.8469889352E+00  0.1000000000E+01  0.0000000000E+00  0.2826077070E-02  0.8528764569E-20  0.5375553416E-02  0.6319431775E+15  0.2781307132E-02  0.7527720472E-20  0.5130705940E-02
  0.8000000000E+00  0.1000000000E+01  0.0000000000E+00 -0.2903299596E-01 -0.6882084975E-19 -0.1010325030E-01  0.6319431775E+15 -0.2902477733E-01 -0.7210757646E-19 -0.1093188771E-01
  0.1200000000E+01  0.1000000000E+01  0.4698893521E-01  0.1822448352E+01 -0.4302751362E-16 -0.1996176873E+00  0.6319431775E+15  0.1825598320E+01 -0.4313723001E-16 -0.2001194424E+00
  0.1153011065E+01  0.1000000000E+01  0.4698893521E-01  0.1165195158E+01 -0.2356750206E-16 -0.4114839822E-01  0.6319431775E+15  0.1168706914E+01 -0.2368139816E-16 -0.4382635230E-01
  0.1057046303E+01  0.1000000000E+01  0.4698893521E-01  0.1175523821E+01 -0.5667085086E-17 -0.6035772330E-01  0.6319431775E+15  0.1177727369E+01 -0.5670721642E-17 -0.7024687778E-01
  0.9429536967E+00  0.1000000000E+01  0.4698893521E-01  0.6945817634E+00 -0.1402389192E-16 -0.3915158817E-01  0.6319431775E+15  0.6955307455E+00 -0.1406295265E-16 -0.5470278117E-01
  0.8469889352E+00  0.1000000000E+01  0.4698893521E-01  0.6746510228E+00 -0.3191114547E-16 -0.3508806083E-01  0.6319431775E+15  0.6748017694E+00 -0.3190571083E-16 -0.5469898413E-01
  0.8000000000E+00  0.1000000000E+01  0.4698893521E-01  0.2824235186E+00 -0.2702009274E-16  0.5436255404E-01  0.6319431775E+15  0.2821036709E+00 -0.2701580086E-16  0.3359055943E-01
  0.1200000000E+01  0.1000000000E+01  0.1429536967E+00  0.3585150647E+01 -0.5719656648E-16 -0.3597855672E+00  0.6319431775E+15  0.3592732766E+01 -0.5730495414E-16 -0.3668504516E+00
  0.1153011065E+01  0.1000000000E+01  0.1429536967E+00  0.2256277983E+01 -0.6225956427E-16 -0.5533281900E+00  0.6319431775E+15  0.2266113234E+01 -0.6175520278E-16 -0.5608259377E+00
  0.1057046303E+01  0.1000000000E+01  0.1429536967E+00  0.2224891782E+01 -0.2910231984E-16 -0.3284219336E+00  0.6319431775E+15  0.2232675807E+01 -0.2915751807E-16 -0.3383262707E+00
  0.9429536967E+00  0.1000000000E+01  0.1429536967E+00  0.1319024493E+01 -0.2801375383E-16 -0.4886717918E+00  0.6319431775E+15  0.1325279079E+01 -0.2803477463E-16 -0.5021745235E+00
  0.8469889352E+00  0.1000000000E+01  0.1429536967E+00  0.1268361096E+01 -0.4809713957E-16 -0.2211683410E+00  0.6319431775E+15  0.1273257025E+01 -0.4812863635E-16 -0.2399758645E+00
  0.8000000000E+00  0.1000000000E+01  0.1429536967E+00  0.6153414595E+00 -0.5522631417E-16 -0.2386621166E+00  0.6319431775E+15  0.6157577438E+00 -0.5526143010E-16 -0.2584832739E+00
  0.1200000000E+01  0.1000000000E+01  0.2570463033E+00  0.2558080841E+01 -0.2154542385E-16 -0.9486556098E+00  0.6319431775E+15  0.2561952341E+01 -0.2147692042E-16 -0.9452549611E+00
  0.1153011065E+01  0.1000000000E+01  0.2570463033E+00  0.2209860999E+01 -0.5601087676E-16 -0.1195541999E+01  0.6319431775E+15  0.2221028561E+01 -0.5696427796E-16 -0.1193269326E+01
  0.1057046303E+01  0.1000000000E+01  0.2570463033E+00  0.1844027353E+01 -0.3708502230E-16 -0.8108013298E+00  0.6319431775E+15  0.1854925603E+01 -0.3708030590E-16 -0.8121842165E+00
  0.9429536967E+00  0.1000000000E+01  0.2570463033E+00  0.1361726387E+01 -0.3043450251E-16 -0.1005608614E+01  0.6319431775E+15  0.1373897132E+01 -0.3103691071E-16 -0.1012387912E+01
  0.8469889352E+00  0.1000000000E+01  0.2570463033E+00  0.1186134771E+01 -0.7442855503E-17 -0.5586683853E+00  0.6319431775E+15  0.1196786949E+01 -0.7287467999E-17 -0.5702381463E+00
  0.8000000000E+00  0.1000000000E+01  0.2570463033E+00  0.9243087133E+00 -0.6332785873E-17 -0.5667053900E+00  0.6319431775E+15  0.9238739078E+00 -0.6348115936E-17 -0.5791008534E+00
  0.1200000000E+01  0.1000000000E+01  0.3530110648E+00  0.2174225085E+01 -0.7612635350E-18 -0.1610546130E+01  0.6319431775E+15  0.2182708699E+01 -0.7271821635E-18 -0.1597033198E+01
  0.1153011065E+01  0.1000000000E+01  0.3530110648E+00  0.1664300341E+01 -0.1653051553E-16 -0.1543077087E+01  0.6319431775E+15  0.1682156540E+01 -0.1672763428E-16 -0.1533597896E+01
  0.1057046303E+01  0.1000000000E+01  0.3530110648E+00  0.1408392682E+01 -0.2180691268E-16 -0.1203161091E+01  0.6319431775E+15  0.1427036691E+01 -0.2184829925E-16 -0.1203257869E+01
  0.9429536967E+00  0.1000000000E+01  0.3530110648E+00  0.9809883234E+00 -0.2052916346E-16 -0.1196747993E+01  0.6319431775E+15  0.9991243947E+00 -0.2102684037E-16 -0.1205734232E+01
  0.8469889352E+00  0.1000000000E+01  0.3530110648E+00  0.9360333560E+00 -0.1669288754E-18 -0.8184822704E+00  0.6319431775E+15  0.9500471474E+00  0.3036466324E-18 -0.8312695913E+00
  0.8000000000E+00  0.1000000000E+01  0.3530110648E+00  0.6492520422E+00  0.5372604015E-17 -0.7360350681E+00  0.6319431775E+15  0.6492995693E+00  0.5342258743E-17 -0.7494229715E+00
  0.1200000000E+01  0.1000000000E+01  0.4000000000E+00  0.1723655074E+01 -0.5641815700E-17 -0.1676412069E+01  0.6319431775E+15  0.1735043405E+01 -0.5611238831E-17 -0.1673028144E+01
  0.1153011065E+01  0.1000000000E+01  0.4000000000E+00  0.1564138125E+01 -0.7708267732E-17 -0.1798811421E+01  0.6319431775E+15  0.1585470439E+01 -0.7531593989E-17 -0.1797833256E+01
  0.1057046303E+01  0.1000000000E+01  0.4000000000E+00  0.1165861658E+01 -0.1569066535E-16 -0.1356237571E+01  0.6319431775E+15  0.1187678439E+01 -0.1561981107E-16 -0.1357879657E+01
  0.9429536967E+00  0.1000000000E+01  0.4000000000E+00  0.8609976226E+00 -0.2360030249E-16 -0.1336809837E+01  0.6319431775E+15  0.8811801903E+00 -0.2415247191E-16 -0.1340808087E+01
  0.8469889352E+00  0.1000000000E+01  0.4000000000E+00  0.7190041785E+00 -0.1421021741E-16 -0.8918359965E+00  0.6319431775E+15  0.7337187690E+00 -0.1403132515E-16 -0.8962903147E+00
  0.8000000000E+00  0.1000000000E+01  0.4000000000E+00  0.6345705707E+00 -0.7312380300E-17 -0.8485765292E+00  0.6319431775E+15  0.6347487521E+00 -0.7316181376E-17 -0.8532172398E+00
ZONE I=6, J=6, K=1, F=POINT
  0.1600000000E+01  0.1000000000E+01  0.0000000000E+00  0.1330984599E+00 -0.8864904696E-18 -0.7325261697E-01  0.6319431775E+15  0.1336800564E+00 -0.9944483287E-18 -0.7317689505E-01
  0.1553011065E+01  0.1000000000E+01  0.0000000000E+00  0.1092289916E-01 -0.1476763036E-17  0.4544585011E-01  0.6319431775E+15  0.1165399374E-01 -0.1542402944E-17  0.4534995514E-01
  0.1457046303E+01  0.1000000000E+01  0.0000000000E+00 -0.7138363196E-02 -0.8118233185E-19 -0.3073181107E-02  0.6319431775E+15 -0.6819765115E-02 -0.1029077231E-18 -0.3015805515E-02
  0.1342953697E+01  0.1000000000E+01  0.0000000000E+00  0.5934466748E-02  0.4790108054E-18  0.3015336333E-01  0.6319431775E+15  0.5964761041E-02  0.4829968968E-18  0.3014077400E-01
  0.1246988935E+01  0.1000000000E+01  0.0000000000E+00 -0.7426954923E-02  0.1163068178E-18 -0.7817210837E-02  0.6319431775E+15 -0.7735394098E-02  0.1173067855E-18 -0.7738170717E-02
  0.1200000000E+01  0.1000000000E+01  0.0000000000E+00  0.5985653211E-01  0.9525112640E-19  0.3646958715E-01  0.6319431775E+15  0.5922418463E-01  0.9838537735E-19  0.3653757948E-01
  0.1600000000E+01  0.1000000000E+01  0.4698893521E-01  0.2453091831E+01 -0.8190906642E-16  0.1823202113E+00  0.6319431775E+15  0.2456933522E+01 -0.8200552695E-16  0.1736869696E+00
  0.1553011065E+01  0.1000000000E+01  0.4698893521E-01  0.2960302166E+01 -0.3773286290E-16 -0.3245853492E+00  0.6319431775E+15  0.2963553748E+01 -0.3765992973E-16 -0.3320638027E+00
  0.1457046303E+01  0.1000000000E+01  0.4698893521E-01  0.1950488445E+01 -0.5056456543E-17 -0.1208951613E+00  0.6319431775E+15  0.1954135278E+01 -0.5164263781E-17 -0.1250484202E+00
  0.1342953697E+01  0.1000000000E+01  0.4698893521E-01  0.1980867239E+01  0.3213104919E-16 -0.8177630733E-01  0.6319431775E+15  0.1983203731E+01  0.3214932512E-16 -0.8525465803E-01
  0.1246988935E+01  0.1000000000E+01  0.4698893521E-01  0.1466306836E+01 -0.4886194296E-17 -0.2597314221E-01  0.6319431775E+15  0.1466943655E+01 -0.4857125000E-17 -0.2613975978E-01
  0.1200000000E+01  0.1000000000E+01  0.4698893521E-01  0.1927050983E+01 -0.4753661721E-16 -0.2053655983E+00  0.6319431775E+15  0.1927982667E+01 -0.4759604608E-16 -0.2055515359E+00
  0.1600000000E+01  0.1000000000E+01  0.1429536967E+00  0.3856632875E+01 -0.2626689704E-15 -0.1903268125E+01  0.6319431775E+15  0.3854321177E+01 -0.2622320384E-15 -0.1911502545E+01
  0.1553011065E+01  0.1000000000E+01  0.1429536967E+00  0.5645666793E+01 -0.1625864336E-15 -0.9681862657E+00  0.6319431775E+15  0.5649008746E+01 -0.1626656000E-15 -0.9781616127E+00
  0.1457046303E+01  0.1000000000E+01  0.1429536967E+00  0.3693796573E+01  0.3433670455E-16 -0.8931045667E+00  0.6319431775E+15  0.3698658149E+01  0.3436086287E-16 -0.9041609035E+00
  0.1342953697E+01  0.1000000000E+01  0.1429536967E+00  0.3921512399E+01  0.1112193448E-15 -0.7514235086E-01  0.6319431775E+15  0.3922962105E+01  0.1112453133E-15 -0.8472142914E-01
  0.1246988935E+01  0.1000000000E+01  0.1429536967E+00  0.2834677036E+01  0.2768335932E-16 -0.4982977941E+00  0.6319431775E+15  0.2834190835E+01  0.2795976302E-16 -0.5058468696E+00
  0.1200000000E+01  0.1000000000E+01  0.1429536967E+00  0.3752915515E+01 -0.6149430944E-16 -0.3550583376E+00  0.6319431775E+15  0.3753772784E+01 -0.6152117529E-16 -0.3625046005E+00
  0.1600000000E+01  0.1000000000E+01  0.2570463033E+00  0.6743643491E+01  0.3714338306E-16 -0.3710507912E+01  0.6319431775E+15  0.6760113618E+01  0.3718343670E-16 -0.3715990908E+01
  0.1553011065E+01  0.1000000000E+01  0.2570463033E+00  0.5790843936E+01  0.5552608806E-16 -0.2334662262E+01  0.6319431775E+15  0.5801773513E+01  0.5548574182E-16 -0.2337522440E+01
  0.1457046303E+01  0.1000000000E+01  0.2570463033E+00  0.4695577693E+01  0.1580414986E-15 -0.2025571236E+01  0.6319431775E+15  0.4701739125E+01  0.1581783231E-15 -0.2028642217E+01
  0.1342953697E+01  0.1000000000E+01  0.2570463033E+00  0.3588309875E+01  0.1320530750E-15 -0.6508294040E+00  0.6319431775E+15  0.3588426978E+01  0.1319484113E-15 -0.6514724240E+00
  0.1246988935E+01  0.1000000000E+01  0.2570463033E+00  0.2775066170E+01  0.3430266237E-16 -0.1194796357E+01  0.6319431775E+15  0.2773510118E+01  0.3419985854E-16 -0.1191604232E+01
  0.1200000000E+01  0.1000000000E+01  0.2570463033E+00  0.2604420567E+01 -0.2190591042E-16 -0.9415570157E+00  0.6319431775E+15  0.2607638806E+01 -0.2182940198E-16 -0.9394621855E+00
  0.1600000000E+01  0.1000000000E+01  0.3530110648E+00  0.4524013484E+01  0.6745799637E-16 -0.4223703451E+01  0.6319431775E+15  0.4537585216E+01  0.6749273337E-16 -0.4219946808E+01
  0.1553011065E+01  0.1000000000E+01  0.3530110648E+00  0.4749413373E+01  0.8452114686E-16 -0.3696982663E+01  0.6319431775E+15  0.4757215622E+01  0.8460635660E-16 -0.3692419859E+01
  0.1457046303E+01  0.1000000000E+01  0.3530110648E+00  0.3808953346E+01  0.1229852852E-15 -0.2854135047E+01  0.6319431775E+15  0.3814310338E+01  0.1229942211E-15 -0.2844963426E+01
  0.1342953697E+01  0.1000000000E+01  0.3530110648E+00  0.3074229483E+01  0.1114310220E-15 -0.1716469845E+01  0.6319431775E+15  0.3070871418E+01  0.1112018882E-15 -0.1706252695E+01
  0.1246988935E+01  0.1000000000E+01  0.3530110648E+00  0.2129383834E+01  0.3118672535E-16 -0.1688055229E+01  0.6319431775E+15  0.2124682131E+01  0.3131971706E-16 -0.1673751338E+01
  0.1200000000E+01  0.1000000000E+01  0.3530110648E+00  0.2253342084E+01 -0.7153774477E-18 -0.1611255957E+01  0.6319431775E+15  0.2260674333E+01 -0.6956961989E-18 -0.1597404528E+01
  0.1600000000E+01  0.1000000000E+01  0.4000000000E+00  0.4606950161E+01  0.4070800681E-16 -0.5031705816E+01  0.6319431775E+15  0.4621182021E+01  0.4073114790E-16 -0.5024206667E+01
  0.1553011065E+01  0.1000000000E+01  0.4000000000E+00  0.3964816331E+01  0.7244738452E-16 -0.3682602044E+01  0.6319431775E+15  0.3971555933E+01  0.7243749597E-16 -0.3675738113E+01
  0.1457046303E+01  0.1000000000E+01  0.4000000000E+00  0.3551777266E+01  0.8519114372E-16 -0.3214737866E+01  0.6319431775E+15  0.3555838528E+01  0.8533113281E-16 -0.3205041815E+01
  0.1342953697E+01  0.1000000000E+01  0.4000000000E+00  0.2655289822E+01  0.9883698914E-16 -0.1889732508E+01  0.6319431775E+15  0.2652641512E+01  0.9861093137E-16 -0.1883103604E+01
  0.1246988935E+01  0.1000000000E+01  0.4000000000E+00  0.2068507355E+01  0.1843632194E-16 -0.2011728537E+01  0.6319431775E+15  0.2062467780E+01  0.1854360405E-16 -0.2007636917E+01
  0.1200000000E+01  0.1000000000E+01  0.4000000000E+00  0.1703467745E+01 -0.5389077007E-17 -0.1667215198E+01  0.6319431775E+15  0.1715204587E+01 -0.5372720884E-17 -0.1664835212E+01
ZONE I=6, J=6, K=1, F=POINT
  0.2000000000E+01  0.1000000000E+01  0.0000000000E+00  0.2399716284E+01  0.6422668346E-19  0.2123148938E+02  0.6319431775E+15  0.2427632599E+01  0.9030309282E-19  0.2215299466E+02
  0.1953011065E+01  0.1000000000E+01  0.0000000000E+00  0.1293540822E+01 -0.3693804108E-16 -0.1365445163E+00  0.6319431775E+15  0.1299139667E+01 -0.3586414750E-16 -0.1502539316E+00
  0.1857046303E+01  0.1000000000E+01  0.0000000000E+00 -0.3052371999E+00 -0.1874706386E-16  0.1555056732E+00  0.6319431775E+15 -0.3047473808E+00 -0.1922370674E-16  0.1527647553E+00
  0.1742953697E+01  0.1000000000E+01  0.0000000000E+00  0.1349007647E+00  0.3550169116E-18 -0.3950077145E-01  0.6319431775E+15  0.1367897070E+00  0.3063169156E-18 -0.3891854513E-01
  0.1646988935E+01  0.1000000000E+01  0.0000000000E+00 -0.1259118662E+00  0.4679848457E-18  0.6059272806E-01  0.6319431775E+15 -0.1246453577E+00  0.4377463280E-18  0.5956642140E-01
  0.1600000000E+01  0.1000000000E+01  0.0000000000E+00  0.8530983699E-01 -0.9678521068E-18 -0.8521113238E-01  0.6319431775E+15  0.8535250804E-01 -0.1078227359E-17 -0.8375970975E-01
  0.2000000000E+01  0.1000000000E+01  0.4698893521E-01 -0.1798989096E-01  0.7519330543E-18  0.4848448182E+02  0.6319431775E+15 -0.6057139963E-01  0.6830787543E-18  0.4866046982E+02
  0.1953011065E+01  0.1000000000E+01  0.4698893521E-01  0.1102745898E+02  0.1544843217E-15  0.1531500386E+01  0.6319431775E+15  0.1102287358E+02  0.1533639162E-15  0.1555063748E+01
  0.1857046303E+01  0.1000000000E+01  0.4698893521E-01  0.1173923795E+02  0.3409959959E-15 -0.1936072705E+01  0.6319431775E+15  0.1175044485E+02  0.3418041760E-15 -0.1930216430E+01
  0.1742953697E+01  0.1000000000E+01  0.4698893521E-01  0.5510123457E+01  0.1386349035E-16 -0.7507410131E+00  0.6319431775E+15  0.5522967054E+01  0.1414333268E-16 -0.7539819988E+00
  0.1646988935E+01  0.1000000000E+01  0.4698893521E-01  0.4007577019E+01 -0.1088620803E-15 -0.7072628344E+00  0.6319431775E+15  0.4014609541E+01 -0.1094044542E-15 -0.7126065143E+00
  0.1600000000E+01  0.1000000000E+01  0.4698893521E-01  0.2280084646E+01 -0.7873365020E-16  0.1682108066E+00  0.6319431775E+15  0.2292595504E+01 -0.7862024618E-16  0.1544099014E+00
  0.2000000000E+01  0.1000000000E+01  0.1429536967E+00 -0.2833404483E+00  0.2160260224E-17  0.5050370326E+02  0.6319431775E+15 -0.2611426186E+00  0.2037469650E-17  0.5044195396E+02
  0.1953011065E+01  0.1000000000E+01  0.1429536967E+00  0.2693289416E+01 -0.4766206483E-15  0.1641229230E+02  0.6319431775E+15  0.2692477505E+01 -0.4756322285E-15  0.1645515158E+02
  0.1857046303E+01  0.1000000000E+01  0.1429536967E+00  0.1184152134E+02 -0.2583625453E-15 -0.4211541026E+01  0.6319431775E+15  0.1185706205E+02 -0.2593260236E-15 -0.4204189730E+01
  0.1742953697E+01  0.1000000000E+01  0.1429536967E+00  0.8017958935E+01  0.1194351205E-15 -0.4651632566E+01  0.6319431775E+15  0.8037446293E+01  0.1201700961E-15 -0.4660275881E+01
  0.1646988935E+01  0.1000000000E+01  0.1429536967E+00  0.6997871716E+01 -0.1135159154E-15 -0.2316213211E+01  0.6319431775E+15  0.7010820991E+01 -0.1131541031E-15 -0.2323479567E+01
  0.1600000000E+01  0.1000000000E+01  0.1429536967E+00  0.3487318508E+01 -0.2790621838E-15 -0.1899781968E+01  0.6319431775E+15  0.3515485947E+01 -0.2792377558E-15 -0.1914391870E+01
  0.2000000000E+01  0.1000000000E+01  0.2570463033E+00  0.1318028030E-01  0.9667648740E-18  0.4987013053E+02  0.6319431775E+15  0.1260692685E-01  0.8900928897E-18  0.4987735267E+02