TITLE = "Generated from ../MESH/Convergence_0000000000.hmesh and Convergence_0000003500.hsol"
VARIABLES = "x","y","z","veloT_x","veloT_y","veloT_z","slr_4","velo_x","velo_y","velo_z"
ZONE I=6, J=6, K=1, F=POINT
  0.4000000000E+00  0.1000000000E+01  0.0000000000E+00 -0.1164617407E-01  0.2858594610E-19  0.7701446685E-02  0.6376396963E+15 -0.1187842762E-01  0.2806197293E-19  0.7448705273E-02
  0.3530110648E+00  0.1000000000E+01  0.0000000000E+00 -0.1324618566E-02  0.7172020668E-20 -0.3044718821E-03  0.6376396963E+15 -0.1505892581E-02  0.9946528232E-20 -0.2956555589E-03
  0.2570463033E+00  0.1000000000E+01  0.0000000000E+00 -0.4307652740E-04  0.6464133982E-21  0.2315887146E-02  0.6376396963E+15 -0.1952276075E-03  0.1439560884E-20  0.2326856902E-02
  0.1429536967E+00  0.1000000000E+01  0.0000000000E+00 -0.1121243860E-02  0.1297362088E-21 -0.1082882031E-02  0.6376396963E+15 -0.1300635706E-02  0.3754865188E-21 -0.1129271073E-02
  0.4698893521E-01  0.1000000000E+01  0.0000000000E+00  0.1554585600E-02 -0.2339276624E-20  0.1913586847E-02  0.6376396963E+15  0.1407882131E-02 -0.2261265131E-20  0.1964335072E-02
  0.0000000000E+00  0.1000000000E+01  0.0000000000E+00 -0.7498112510E-02  0.1029207477E-22  0.2069814054E-02  0.6376396963E+15 -0.7508503799E-02  0.1447307833E-22  0.2110199991E-02
  0.4000000000E+00  0.1000000000E+01  0.4698893521E-01  0.2669456993E+00  0.2838653293E-17 -0.4168811639E-01  0.6376396963E+15  0.2648112689E+00  0.2851259413E-17 -0.5535658882E-01
  0.3530110648E+00  0.1000000000E+01  0.4698893521E-01  0.1282949650E+00  0.2543373740E-17 -0.5509233068E-02  0.6376396963E+15  0.1260084846E+00  0.2581954227E-17 -0.1700226929E-01
  0.2570463033E+00  0.1000000000E+01  0.4698893521E-01  0.1015566569E+00  0.9574920718E-18 -0.1823623813E-01  0.6376396963E+15  0.9938472168E-01  0.9502283001E-18 -0.2521674005E-01
  0.1429536967E+00  0.1000000000E+01  0.4698893521E-01  0.6024711506E-02  0.2169011018E-18 -0.1210173721E-01  0.6376396963E+15  0.3863144213E-02  0.2099049670E-18 -0.1397707195E-01
  0.4698893521E-01  0.1000000000E+01  0.4698893521E-01 -0.1669274730E-02  0.3919997592E-19 -0.9171480575E-02  0.6376396963E+15 -0.3115014695E-02  0.3793235585E-19 -0.8604864359E-02
  0.0000000000E+00  0.1000000000E+01  0.4698893521E-01 -0.1809438117E-01  0.9033471758E-21  0.2597721073E-02  0.6376396963E+15 -0.1813833660E-01  0.9720700465E-21  0.2665919992E-02
  0.4000000000E+00  0.1000000000E+01  0.1429536967E+00  0.5901496464E+00  0.9302862342E-17 -0.1019394756E+00  0.6376396963E+15  0.5813234518E+00  0.9184171171E-17 -0.1374987837E+00
  0.3530110648E+00  0.1000000000E+01  0.1429536967E+00  0.3352562242E+00  0.5518667734E-17 -0.1443585396E+00  0.6376396963E+15  0.3256996458E+00  0.5731216287E-17 -0.1752501803E+00
  0.2570463033E+00  0.1000000000E+01  0.1429536967E+00  0.2394311912E+00  0.2091544178E-17 -0.9459416037E-01  0.6376396963E+15  0.2290451080E+00  0.2076538924E-17 -0.1148672615E+00
  0.1429536967E+00  0.1000000000E+01  0.1429536967E+00  0.3942620262E-01  0.6994491129E-18 -0.1136267512E+00  0.6376396963E+15  0.3049773492E-01  0.6952097136E-18 -0.1209150640E+00
  0.4698893521E-01  0.1000000000E+01  0.1429536967E+00 -0.6715726940E-02  0.1505792894E-18 -0.1075276333E-01  0.6376396963E+15 -0.1062393740E-01  0.1524844484E-18 -0.1097516565E-01
  0.0000000000E+00  0.1000000000E+01  0.1429536967E+00 -0.2122141620E-01 -0.2575229733E-21 -0.9858531046E-03  0.6376396963E+15 -0.2124081313E-01  0.3034515229E-21 -0.9562249672E-03
  0.4000000000E+00  0.1000000000E+01  0.2570463033E+00  0.6733361351E+00  0.2908309008E-17 -0.3398765095E+00  0.6376396963E+15  0.6509228885E+00  0.2884888135E-17 -0.3930459194E+00
  0.3530110648E+00  0.1000000000E+01  0.2570463033E+00  0.5030615396E+00  0.2229861748E-17 -0.3895593037E+00  0.6376396963E+15  0.4786640008E+00  0.1569835611E-17 -0.4357188690E+00
  0.2570463033E+00  0.1000000000E+01  0.2570463033E+00  0.3176995217E+00  0.1483732409E-17 -0.2772220722E+00  0.6376396963E+15  0.2906681350E+00  0.1491292970E-17 -0.3075133873E+00
  0.1429536967E+00  0.1000000000E+01  0.2570463033E+00  0.9638966041E-01  0.1196187987E-17 -0.2768358327E+00  0.6376396963E+15  0.7317792893E-01  0.1201713500E-17 -0.2887240384E+00
  0.4698893521E-01  0.1000000000E+01  0.2570463033E+00  0.1059066739E-01  0.9323652375E-18 -0.5113684049E-01  0.6376396963E+15  0.5390686883E-03  0.9132831462E-18 -0.5263808607E-01
  0.0000000000E+00  0.1000000000E+01  0.2570463033E+00 -0.1413775668E-01 -0.3220347576E-20 -0.7795879977E-03  0.6376396963E+15 -0.1407728676E-01 -0.4319481814E-20 -0.1018549066E-02
  0.4000000000E+00  0.1000000000E+01  0.3530110648E+00  0.7012537575E+00  0.3150936644E-17 -0.5913990279E+00  0.6376396963E+15  0.6650485240E+00  0.3181052505E-17 -0.6457882873E+00
  0.3530110648E+00  0.1000000000E+01  0.3530110648E+00  0.5214480492E+00  0.2799208776E-17 -0.6079806801E+00  0.6376396963E+15  0.4809403701E+00  0.2790236715E-17 -0.6551779670E+00
  0.2570463033E+00  0.1000000000E+01  0.3530110648E+00  0.3321044528E+00  0.1171050358E-17 -0.4741682989E+00  0.6376396963E+15  0.2878637491E+00  0.1601535319E-17 -0.5040300294E+00
  0.1429536967E+00  0.1000000000E+01  0.3530110648E+00  0.1049631029E+00  0.1630916705E-17 -0.4127274276E+00  0.6376396963E+15  0.6793207723E-01  0.1725006142E-17 -0.4239136017E+00
  0.4698893521E-01  0.1000000000E+01  0.3530110648E+00  0.1424315766E-01  0.4923975991E-18 -0.1128400695E+00  0.6376396963E+15 -0.1930789506E-02  0.5030091688E-18 -0.1140612488E+00
  0.0000000000E+00  0.1000000000E+01  0.3530110648E+00 -0.1411984212E-01  0.5878206320E-20 -0.1013223110E-02  0.6376396963E+15 -0.1404415114E-01  0.4968381541E-20 -0.1232356965E-02
  0.4000000000E+00  0.1000000000E+01  0.4000000000E+00  0.6796348848E+00  0.5284164988E-17 -0.7145225932E+00  0.6376396963E+15  0.6374536874E+00  0.5284693941E-17 -0.7608376890E+00
  0.3530110648E+00  0.1000000000E+01  0.4000000000E+00  0.5492854832E+00  0.4479072900E-17 -0.7229774060E+00  0.6376396963E+15  0.5013585979E+00  0.4585120991E-17 -0.7635871739E+00
  0.2570463033E+00  0.1000000000E+01  0.4000000000E+00  0.3354341552E+00  0.1667807090E-17 -0.5729593832E+00  0.6376396963E+15  0.2830439339E+00  0.1547409057E-17 -0.5983692202E+00
  0.1429536967E+00  0.1000000000E+01  0.4000000000E+00  0.1172306332E+00  0.1891074133E-17 -0.4827545439E+00  0.6376396963E+15  0.7406820836E-01  0.1807740626E-17 -0.4911898708E+00
  0.4698893521E-01  0.1000000000E+01  0.4000000000E+00  0.1109911729E-01  0.4973136281E-18 -0.1415979846E+00  0.6376396963E+15 -0.7597635320E-02  0.4992024023E-18 -0.1424751996E+00
  0.0000000000E+00  0.1000000000E+01  0.4000000000E+00 -0.6142652549E-02  0.7717719392E-20 -0.2872763842E-02  0.6376396963E+15 -0.6162192626E-02  0.7873623615E-20 -0.2770369585E-02
ZONE I=6, J=6, K=1, F=POINT
  0.8000000000E+00  0.1000000000E+01  0.0000000000E+00  0.1831886505E-01 -0.8438254653E-19 -0.1173999098E-01  0.6376396963E+15  0.1740816775E-01 -0.8592090073E-19 -0.1176845330E-01
  0.7530110648E+00  0.1000000000E+01  0.0000000000E+00  0.2601658939E-02  0.9017828598E-19  0.5882853624E-02  0.6376396963E+15  0.1888572702E-02  0.8010812957E-19  0.5905995703E-02
  0.6570463033E+00  0.1000000000E+01  0.0000000000E+00 -0.1581206719E-03  0.2595924224E-19  0.2779344376E-03  0.6376396963E+15 -0.7971730183E-03  0.1966034577E-19  0.2421844850E-03
  0.5429536967E+00  0.1000000000E+01  0.0000000000E+00  0.9543535567E-03  0.2997229988E-19  0.6919727539E-02  0.6376396963E+15  0.4861227610E-03  0.2004397497E-19  0.6937620745E-02
  0.4469889352E+00  0.1000000000E+01  0.0000000000E+00 -0.1679162512E-02 -0.3247067281E-19  0.6787324209E-03  0.6376396963E+15 -0.2044822216E-02 -0.3913519275E-19  0.6966809541E-03
  0.4000000000E+00  0.1000000000E+01  0.0000000000E+00  0.1504512199E-01  0.3223636560E-19  0.7386506548E-02  0.6376396963E+15  0.1454577745E-01  0.3174966869E-19  0.7145613807E-02
  0.8000000000E+00  0.1000000000E+01  0.4698893521E-01  0.3162002928E+00 -0.2450704486E-16  0.2454628249E-02  0.6376396963E+15  0.3156153754E+00 -0.2449611360E-16 -0.1586265941E-01
  0.7530110648E+00  0.1000000000E+01  0.4698893521E-01  0.5103417658E+00 -0.2389149011E-16 -0.5439283156E-01  0.6376396963E+15  0.5095139191E+00 -0.2381910293E-16 -0.7382969827E-01
  0.6570463033E+00  0.1000000000E+01  0.4698893521E-01  0.2954935658E+00 -0.4999914621E-17 -0.1844622653E-01  0.6376396963E+15  0.2940260909E+00 -0.5046526829E-17 -0.3792701307E-01
  0.5429536967E+00  0.1000000000E+01  0.4698893521E-01  0.3295035619E+00  0.4158952573E-17 -0.6061823597E-02  0.6376396963E+15  0.3278284106E+00  0.4119748522E-17 -0.2380674407E-01
  0.4469889352E+00  0.1000000000E+01  0.4698893521E-01  0.2032810808E+00  0.3778964837E-17  0.2004347053E-02  0.6376396963E+15  0.2016649809E+00  0.3802330240E-17 -0.1317951554E-01
  0.4000000000E+00  0.1000000000E+01  0.4698893521E-01  0.3086863149E+00  0.2599405269E-17 -0.4244424996E-01  0.6376396963E+15  0.3065693539E+00  0.2611882155E-17 -0.5610461744E-01
  0.8000000000E+00  0.1000000000E+01  0.1429536967E+00  0.9879702469E+00 -0.5577814979E-16 -0.3442809479E+00  0.6376396963E+15  0.9936686524E+00 -0.5560070763E-16 -0.3832316685E+00
  0.7530110648E+00  0.1000000000E+01  0.1429536967E+00  0.1285560844E+01 -0.3565659822E-16 -0.1972509586E+00  0.6376396963E+15  0.1289019330E+01 -0.3539742839E-16 -0.2403835541E+00
  0.6570463033E+00  0.1000000000E+01  0.1429536967E+00  0.8598698220E+00 -0.4830143408E-17 -0.1861570667E+00  0.6376396963E+15  0.8589594918E+00 -0.4822136657E-17 -0.2339579208E+00
  0.5429536967E+00  0.1000000000E+01  0.1429536967E+00  0.8071847840E+00  0.8907371365E-17 -0.3898082458E-01  0.6376396963E+15  0.8019755932E+00  0.8730728804E-17 -0.8560444252E-01
  0.4469889352E+00  0.1000000000E+01  0.1429536967E+00  0.5159637732E+00  0.9007050397E-17 -0.1222036106E+00  0.6376396963E+15  0.5082531194E+00  0.9253169595E-17 -0.1620040538E+00
  0.4000000000E+00  0.1000000000E+01  0.1429536967E+00  0.6413217078E+00  0.1000989560E-16 -0.1013792906E+00  0.6376396963E+15  0.6327773317E+00  0.9896050086E-17 -0.1369615965E+00
  0.8000000000E+00  0.1000000000E+01  0.2570463033E+00  0.1903351220E+01 -0.1626245932E-16 -0.8493846749E+00  0.6376396963E+15  0.1922378410E+01 -0.1623211443E-16 -0.8982467373E+00
  0.7530110648E+00  0.1000000000E+01  0.2570463033E+00  0.1789568672E+01 -0.1176074970E-16 -0.5953144616E+00  0.6376396963E+15  0.1803630612E+01 -0.1259184435E-16 -0.6490792529E+00
  0.6570463033E+00  0.1000000000E+01  0.2570463033E+00  0.1352317739E+01 -0.5293852256E-17 -0.5324050827E+00  0.6376396963E+15  0.1355955967E+01 -0.5372495699E-17 -0.5929096080E+00
  0.5429536967E+00  0.1000000000E+01  0.2570463033E+00  0.1046395607E+01  0.1448619045E-17 -0.2746623313E+00  0.6376396963E+15  0.1037469324E+01  0.1318080686E-17 -0.3372596677E+00
  0.4469889352E+00  0.1000000000E+01  0.2570463033E+00  0.7405020001E+00  0.3003554069E-17 -0.3825724431E+00  0.6376396963E+15  0.7221848534E+00  0.2267388643E-17 -0.4409384830E+00
  0.4000000000E+00  0.1000000000E+01  0.2570463033E+00  0.7039362338E+00  0.2934233698E-17 -0.3392295708E+00  0.6376396963E+15  0.6822685394E+00  0.2909190555E-17 -0.3924280005E+00
  0.8000000000E+00  0.1000000000E+01  0.3530110648E+00  0.2044867176E+01 -0.2059008541E-17 -0.1291376073E+01  0.6376396963E+15  0.2075715240E+01 -0.2081833514E-17 -0.1339496953E+01
  0.7530110648E+00  0.1000000000E+01  0.3530110648E+00  0.1965629564E+01  0.2255127605E-17 -0.1072345684E+01  0.6376396963E+15  0.1987787046E+01  0.3453609648E-17 -0.1124822466E+01
  0.6570463033E+00  0.1000000000E+01  0.3530110648E+00  0.1496570840E+01 -0.2663597268E-17 -0.8947194204E+00  0.6376396963E+15  0.1504372931E+01 -0.2099315290E-17 -0.9520101139E+00
  0.5429536967E+00  0.1000000000E+01  0.3530110648E+00  0.1129279713E+01 -0.2552190789E-17 -0.5936192370E+00  0.6376396963E+15  0.1121251467E+01 -0.1534525756E-17 -0.6544811141E+00
  0.4469889352E+00  0.1000000000E+01  0.3530110648E+00  0.7566068800E+00  0.2519271589E-17 -0.6323754607E+00  0.6376396963E+15  0.7315699491E+00  0.2981754067E-17 -0.6917893469E+00
  0.4000000000E+00  0.1000000000E+01  0.3530110648E+00  0.7346274651E+00  0.3126475919E-17 -0.5912125778E+00  0.6376396963E+15  0.6981557919E+00  0.3157553540E-17 -0.6455973520E+00
  0.8000000000E+00  0.1000000000E+01  0.4000000000E+00  0.2106694084E+01 -0.8018899659E-17 -0.1554682858E+01  0.6376396963E+15  0.2143147914E+01 -0.8020495431E-17 -0.1598887877E+01
  0.7530110648E+00  0.1000000000E+01  0.4000000000E+00  0.1902106962E+01 -0.4501872211E-17 -0.1275751467E+01  0.6376396963E+15  0.1927802290E+01 -0.4206156963E-17 -0.1323688567E+01
  0.6570463033E+00  0.1000000000E+01  0.4000000000E+00  0.1488414832E+01 -0.1793800754E-17 -0.1088973580E+01  0.6376396963E+15  0.1498123282E+01 -0.2043123344E-17 -0.1142140048E+01
  0.5429536967E+00  0.1000000000E+01  0.4000000000E+00  0.1100478760E+01  0.4782240681E-17 -0.7956994229E+00  0.6376396963E+15  0.1092957434E+01  0.4125636651E-17 -0.8520478353E+00
  0.4469889352E+00  0.1000000000E+01  0.4000000000E+00  0.7987774058E+00  0.5830920421E-17 -0.7815644432E+00  0.6376396963E+15  0.7700856870E+00  0.5375981508E-17 -0.8328340876E+00
  0.4000000000E+00  0.1000000000E+01  0.4000000000E+00  0.6910456081E+00  0.5301417300E-17 -0.7137720667E+00  0.6376396963E+15  0.6487321110E+00  0.5304046123E-17 -0.7601669828E+00
ZONE I=6, J=6, K=1, F=POINT
  0.1200000000E+01  0.1000000000E+01  0.0000000000E+00 -0.3166156742E-01  0.5793045904E-19  0.3658799155E-01  0.6376396963E+15 -0.3237746432E-01  0.5892320377E-19  0.3694966031E-01
  0.1153011065E+01  0.1000000000E+01  0.0000000000E+00 -0.4589478379E-02 -0.2004942185E-18 -0.9772473888E-02  0.6376396963E+15 -0.5476891108E-02 -0.2351367205E-18 -0.9717081339E-02
  0.1057046303E+01  0.1000000000E+01  0.0000000000E+00  0.2939566841E-02  0.4108839818E-19  0.5823768963E-02  0.6376396963E+15  0.1946419145E-02  0.1424191149E-19  0.5842675149E-02
  0.9429536967E+00  0.1000000000E+01  0.0000000000E+00 -0.1408051456E-02  0.4355206115E-20 -0.8265064634E-02  0.6376396963E+15 -0.2521617588E-02  0.7343252804E-20 -0.8246651914E-02
  0.8469889352E+00  0.1000000000E+01  0.0000000000E+00  0.4051294880E-02 -0.2062663447E-19  0.5304275493E-02  0.6376396963E+15  0.2985330873E-02 -0.1954752712E-19  0.5365410059E-02
  0.8000000000E+00  0.1000000000E+01  0.0000000000E+00 -0.2679442261E-01 -0.9405565640E-19 -0.1124173683E-01  0.6376396963E+15 -0.2770761227E-01 -0.9571698856E-19 -0.1122911684E-01
  0.1200000000E+01  0.1000000000E+01  0.4698893521E-01  0.2135514555E+01 -0.4222333507E-16 -0.2161825531E+00  0.6376396963E+15  0.2136624812E+01 -0.4224857640E-16 -0.2074042216E+00
  0.1153011065E+01  0.1000000000E+01  0.4698893521E-01  0.1454792639E+01 -0.2676710417E-16 -0.6902305978E-01  0.6376396963E+15  0.1455627355E+01 -0.2679479730E-16 -0.6301271821E-01
  0.1057046303E+01  0.1000000000E+01  0.4698893521E-01  0.1328010201E+01 -0.1306162312E-16 -0.1022627780E+00  0.6376396963E+15  0.1328500687E+01 -0.1305807120E-16 -0.1036281256E+00
  0.9429536967E+00  0.1000000000E+01  0.4698893521E-01  0.7354760416E+00 -0.1579304992E-16 -0.8716473025E-01  0.6376396963E+15  0.7355425655E+00 -0.1579530603E-16 -0.9686106716E-01
  0.8469889352E+00  0.1000000000E+01  0.4698893521E-01  0.6429778564E+00 -0.2881777506E-16 -0.8513098132E-01  0.6376396963E+15  0.6428759256E+00 -0.2879812257E-16 -0.1009393065E+00
  0.8000000000E+00  0.1000000000E+01  0.4698893521E-01  0.2553865344E+00 -0.2381040366E-16  0.4500583423E-02  0.6376396963E+15  0.2554879623E+00 -0.2381213148E-16 -0.1386158773E-01
  0.1200000000E+01  0.1000000000E+01  0.1429536967E+00  0.4875559770E+01 -0.5930763106E-16 -0.6249796459E+00  0.6376396963E+15  0.4885718332E+01 -0.5944970997E-16 -0.6186768561E+00
  0.1153011065E+01  0.1000000000E+01  0.1429536967E+00  0.3438623955E+01 -0.6924032738E-16 -0.8284754356E+00  0.6376396963E+15  0.3448032960E+01 -0.6878762454E-16 -0.8253400027E+00
  0.1057046303E+01  0.1000000000E+01  0.1429536967E+00  0.3081349322E+01 -0.4130212402E-16 -0.6078796513E+00  0.6376396963E+15  0.3092698110E+01 -0.4133608474E-16 -0.6149531099E+00
  0.9429536967E+00  0.1000000000E+01  0.1429536967E+00  0.1865496458E+01 -0.3679937947E-16 -0.7109681517E+00  0.6376396963E+15  0.1876432114E+01 -0.3681393773E-16 -0.7334892303E+00
  0.8469889352E+00  0.1000000000E+01  0.1429536967E+00  0.1611189839E+01 -0.5244291247E-16 -0.3659428098E+00  0.6376396963E+15  0.1619356862E+01 -0.5246199626E-16 -0.4005119235E+00
  0.8000000000E+00  0.1000000000E+01  0.1429536967E+00  0.9038968527E+00 -0.5800638839E-16 -0.3458832073E+00  0.6376396963E+15  0.9116218640E+00 -0.5782912554E-16 -0.3848107651E+00
  0.1200000000E+01  0.1000000000E+01  0.2570463033E+00  0.4920675989E+01 -0.9852155665E-17 -0.1678677398E+01  0.6376396963E+15  0.4933292296E+01 -0.9803884343E-17 -0.1682986928E+01
  0.1153011065E+01  0.1000000000E+01  0.2570463033E+00  0.4407168959E+01 -0.4377571556E-16 -0.1916173117E+01  0.6376396963E+15  0.4425471411E+01 -0.4573495128E-16 -0.1924388730E+01
  0.1057046303E+01  0.1000000000E+01  0.2570463033E+00  0.3626099179E+01 -0.3721632500E-16 -0.1505899682E+01  0.6376396963E+15  0.3651000254E+01 -0.3717647150E-16 -0.1522971623E+01
  0.9429536967E+00  0.1000000000E+01  0.2570463033E+00  0.2732984181E+01 -0.3502867660E-16 -0.1550313167E+01  0.6376396963E+15  0.2759389829E+01 -0.3640644032E-16 -0.1579460101E+01
  0.8469889352E+00  0.1000000000E+01  0.2570463033E+00  0.2243461626E+01 -0.1829776807E-16 -0.9254271497E+00  0.6376396963E+15  0.2266270032E+01 -0.1811422170E-16 -0.9678035455E+00
  0.8000000000E+00  0.1000000000E+01  0.2570463033E+00  0.1864863784E+01 -0.1641272752E-16 -0.8518570493E+00  0.6376396963E+15  0.1884456188E+01 -0.1639107560E-16 -0.9003791363E+00
  0.1200000000E+01  0.1000000000E+01  0.3530110648E+00  0.5024659369E+01  0.2705000571E-16 -0.2759130057E+01  0.6376396963E+15  0.5041805930E+01  0.2707581878E-16 -0.2771454044E+01
  0.1153011065E+01  0.1000000000E+01  0.3530110648E+00  0.4324400017E+01  0.6641026972E-17 -0.2667929851E+01  0.6376396963E+15  0.4351155200E+01  0.6309498938E-17 -0.2682607406E+01
  0.1057046303E+01  0.1000000000E+01  0.3530110648E+00  0.3670740018E+01 -0.1439238306E-16 -0.2273062332E+01  0.6376396963E+15  0.3703412951E+01 -0.1411882158E-16 -0.2294853808E+01
  0.9429536967E+00  0.1000000000E+01  0.3530110648E+00  0.2827182708E+01 -0.2017174903E-16 -0.2067536103E+01  0.6376396963E+15  0.2863724686E+01 -0.2111068168E-16 -0.2096898279E+01
  0.8469889352E+00  0.1000000000E+01  0.3530110648E+00  0.2437903836E+01 -0.6142695553E-17 -0.1475502138E+01  0.6376396963E+15  0.2475620565E+01 -0.4724625894E-17 -0.1517150822E+01
  0.8000000000E+00  0.1000000000E+01  0.3530110648E+00  0.1998160085E+01 -0.1997701457E-17 -0.1291622427E+01  0.6376396963E+15  0.2029935642E+01 -0.2025701490E-17 -0.1339793175E+01
  0.1200000000E+01  0.1000000000E+01  0.4000000000E+00  0.4662816498E+01  0.3226566024E-16 -0.3044153494E+01  0.6376396963E+15  0.4679182203E+01  0.3227533796E-16 -0.3059849407E+01
  0.1153011065E+01  0.1000000000E+01  0.4000000000E+00  0.4326583568E+01  0.2252333933E-16 -0.3136190978E+01  0.6376396963E+15  0.4355472631E+01  0.2306933043E-16 -0.3152867155E+01
  0.1057046303E+01  0.1000000000E+01  0.4000000000E+00  0.3541586670E+01 -0.3042560437E-17 -0.2614633556E+01  0.6376396963E+15  0.3576957476E+01 -0.2829922335E-17 -0.2634602900E+01
  0.9429536967E+00  0.1000000000E+01  0.4000000000E+00  0.2832770218E+01 -0.1914098199E-16 -0.2380257991E+01  0.6376396963E+15  0.2873550089E+01 -0.2006004962E-16 -0.2407837744E+01
  0.8469889352E+00  0.1000000000E+01  0.4000000000E+00  0.2343729897E+01 -0.1326482088E-16 -0.1704724486E+01  0.6376396963E+15  0.2388054126E+01 -0.1283713820E-16 -0.1743688807E+01
  0.8000000000E+00  0.1000000000E+01  0.4000000000E+00  0.2102542677E+01 -0.7998017373E-17 -0.1557939485E+01  0.6376396963E+15  0.2138387269E+01 -0.8004279075E-17 -0.1601782652E+01
ZONE I=6, J=6, K=1, F=POINT
  0.1600000000E+01  0.1000000000E+01  0.0000000000E+00  0.1301910211E+00 -0.9026931671E-18 -0.7206481922E-01  0.6376396963E+15  0.1295530958E+00 -0.1024256115E-17 -0.7199508076E-01
  0.1553011065E+01  0.1000000000E+01  0.0000000000E+00  0.9654973826E-02 -0.1277733743E-17  0.4531621939E-01  0.6376396963E+15  0.9168684718E-02 -0.1282999861E-17  0.4511242278E-01
  0.1457046303E+01  0.1000000000E+01  0.0000000000E+00 -0.7866425322E-02 -0.7182352157E-19 -0.3196388567E-02  0.6376396963E+15 -0.8573731271E-02 -0.7523231646E-19 -0.3177811229E-02
  0.1342953697E+01  0.1000000000E+01  0.0000000000E+00  0.4996767371E-02  0.3848935571E-18  0.2989163335E-01  0.6376396963E+15  0.4293670303E-02  0.3471514313E-18  0.2980207514E-01
  0.1246988935E+01  0.1000000000E+01  0.0000000000E+00 -0.7790381727E-02  0.1257441120E-18 -0.8207137939E-02  0.6376396963E+15 -0.8675464226E-02  0.1214315648E-18 -0.8101317789E-02
  0.1200000000E+01  0.1000000000E+01  0.0000000000E+00  0.5797755891E-01  0.6213946372E-19  0.3661646281E-01  0.6376396963E+15  0.5708261060E-01  0.6309174670E-19  0.3700193292E-01
  0.1600000000E+01  0.1000000000E+01  0.4698893521E-01  0.2987774874E+01 -0.8913691540E-16  0.1994587335E+00  0.6376396963E+15  0.2984888186E+01 -0.8907329478E-16  0.2046141525E+00
  0.1553011065E+01  0.1000000000E+01  0.4698893521E-01  0.3452037158E+01 -0.4460289029E-16 -0.3020743029E+00  0.6376396963E+15  0.3450244757E+01 -0.4466106950E-16 -0.2966389592E+00
  0.1457046303E+01  0.1000000000E+01  0.4698893521E-01  0.2452807496E+01 -0.4993309711E-17 -0.1069055921E+00  0.6376396963E+15  0.2451045719E+01 -0.4923261409E-17 -0.1007943982E+00
  0.1342953697E+01  0.1000000000E+01  0.4698893521E-01  0.2432839224E+01  0.2876915489E-16 -0.7847006191E-01  0.6376396963E+15  0.2430521606E+01  0.2875302746E-16 -0.6947000632E-01
  0.1246988935E+01  0.1000000000E+01  0.4698893521E-01  0.1863569721E+01 -0.6804876566E-17 -0.4247358493E-01  0.6376396963E+15  0.1861774509E+01 -0.6885944688E-17 -0.3237089017E-01
  0.1200000000E+01  0.1000000000E+01  0.4698893521E-01  0.2234248137E+01 -0.4646099421E-16 -0.2218678152E+00  0.6376396963E+15  0.2232540944E+01 -0.4641876244E-16 -0.2127073888E+00
  0.1600000000E+01  0.1000000000E+01  0.1429536967E+00  0.6216478743E+01 -0.2672452540E-15 -0.1905471673E+01  0.6376396963E+15  0.6196587543E+01 -0.2674608458E-15 -0.1896647585E+01
  0.1553011065E+01  0.1000000000E+01  0.1429536967E+00  0.7856075088E+01 -0.1447646338E-15 -0.1057795970E+01  0.6376396963E+15  0.7853614441E+01 -0.1448991110E-15 -0.1048768599E+01
  0.1457046303E+01  0.1000000000E+01  0.1429536967E+00  0.5733765230E+01  0.3182592034E-16 -0.1003303926E+01  0.6376396963E+15  0.5731095984E+01  0.3147115075E-16 -0.9937347345E+00
  0.1342953697E+01  0.1000000000E+01  0.1429536967E+00  0.5662827031E+01  0.1012454156E-15 -0.2406449155E+00  0.6376396963E+15  0.5658811151E+01  0.1011194309E-15 -0.2296017779E+00
  0.1246988935E+01  0.1000000000E+01  0.1429536967E+00  0.4308745380E+01  0.2630865131E-16 -0.7564435365E+00  0.6376396963E+15  0.4310971454E+01  0.2625439784E-16 -0.7468338459E+00
  0.1200000000E+01  0.1000000000E+01  0.1429536967E+00  0.5040768862E+01 -0.6346165275E-16 -0.6197224021E+00  0.6376396963E+15  0.5041174868E+01 -0.6349495604E-16 -0.6140323009E+00
  0.1600000000E+01  0.1000000000E+01  0.2570463033E+00  0.1089757748E+02  0.9416205176E-16 -0.3879710870E+01  0.6376396963E+15  0.1090045742E+02  0.9409737630E-16 -0.3885676337E+01
  0.1553011065E+01  0.1000000000E+01  0.2570463033E+00  0.9751389025E+01  0.1185791295E-15 -0.2760286085E+01  0.6376396963E+15  0.9752523266E+01  0.1184412335E-15 -0.2762053337E+01
  0.1457046303E+01  0.1000000000E+01  0.2570463033E+00  0.8291381098E+01  0.1838941499E-15 -0.2538534238E+01  0.6376396963E+15  0.8289018011E+01  0.1836434107E-15 -0.2542081366E+01
  0.1342953697E+01  0.1000000000E+01  0.2570463033E+00  0.6617126204E+01  0.1331166975E-15 -0.1263671156E+01  0.6376396963E+15  0.6614980968E+01  0.1329703932E-15 -0.1267993970E+01
  0.1246988935E+01  0.1000000000E+01  0.2570463033E+00  0.5377341806E+01  0.4094731412E-16 -0.1921784324E+01  0.6376396963E+15  0.5383592006E+01  0.4120349095E-16 -0.1925039659E+01
  0.1200000000E+01  0.1000000000E+01  0.2570463033E+00  0.4960215174E+01 -0.1014033081E-16 -0.1669596286E+01  0.6376396963E+15  0.4973100764E+01 -0.1010292510E-16 -0.1676376806E+01
  0.1600000000E+01  0.1000000000E+01  0.3530110648E+00  0.9173296076E+01  0.1868116111E-15 -0.4553839768E+01  0.6376396963E+15  0.9169049372E+01  0.1867571387E-15 -0.4559599173E+01
  0.1553011065E+01  0.1000000000E+01  0.3530110648E+00  0.9279561973E+01  0.1956653826E-15 -0.4415926303E+01  0.6376396963E+15  0.9282642575E+01  0.1956645051E-15 -0.4424313029E+01
  0.1457046303E+01  0.1000000000E+01  0.3530110648E+00  0.7947108275E+01  0.1932475390E-15 -0.3826055322E+01  0.6376396963E+15  0.7947843389E+01  0.1933694640E-15 -0.3838905557E+01
  0.1342953697E+01  0.1000000000E+01  0.3530110648E+00  0.6607304201E+01  0.1476494665E-15 -0.2803566662E+01  0.6376396963E+15  0.6603892082E+01  0.1476615640E-15 -0.2817438358E+01
  0.1246988935E+01  0.1000000000E+01  0.3530110648E+00  0.5203187564E+01  0.5977352715E-16 -0.2846650205E+01  0.6376396963E+15  0.5208864176E+01  0.5981381537E-16 -0.2858296826E+01
  0.1200000000E+01  0.1000000000E+01  0.3530110648E+00  0.5102112651E+01  0.2716019894E-16 -0.2759691158E+01  0.6376396963E+15  0.5115745887E+01  0.2714865839E-16 -0.2771642508E+01
  0.1600000000E+01  0.1000000000E+01  0.4000000000E+00  0.9263275270E+01  0.1857099145E-15 -0.5387124918E+01  0.6376396963E+15  0.9263684507E+01  0.1856296417E-15 -0.5389986921E+01
  0.1553011065E+01  0.1000000000E+01  0.4000000000E+00  0.8511463794E+01  0.2057496282E-15 -0.4542691005E+01  0.6376396963E+15  0.8518704455E+01  0.2057038605E-15 -0.4546465988E+01
  0.1457046303E+01  0.1000000000E+01  0.4000000000E+00  0.7745712706E+01  0.1837574409E-15 -0.4433665543E+01  0.6376396963E+15  0.7747018327E+01  0.1837257695E-15 -0.4439968010E+01
  0.1342953697E+01  0.1000000000E+01  0.4000000000E+00  0.6256470050E+01  0.1549798010E-15 -0.3233827046E+01  0.6376396963E+15  0.6254474733E+01  0.1546726792E-15 -0.3244908385E+01
  0.1246988935E+01  0.1000000000E+01  0.4000000000E+00  0.5224421304E+01  0.5986042218E-16 -0.3406136302E+01  0.6376396963E+15  0.5229821198E+01  0.5998414069E-16 -0.3419516953E+01
  0.1200000000E+01  0.1000000000E+01  0.4000000000E+00  0.4636268649E+01  0.3253147555E-16 -0.3032642279E+01  0.6376396963E+15  0.4654802553E+01  0.3252199419E-16 -0.3050691476E+01
ZONE I=6, J=6, K=1, F=POINT
  0.2000000000E+01  0.1000000000E+01  0.0000000000E+00  0.2402352109E+01  0.7388934609E-19  0.2123403421E+02  0.6376396963E+15  0.2430234473E+01  0.9451641877E-19  0.2215520720E+02
  0.1953011065E+01  0.1000000000E+01  0.0000000000E+00  0.1291894047E+01 -0.3736933333E-16 -0.1373878203E+00  0.6376396963E+15  0.1295836764E+01 -0.3610467729E-16 -0.1504757524E+00
  0.1857046303E+01  0.1000000000E+01  0.0000000000E+00 -0.3065361199E+00 -0.1880447404E-16  0.1517391683E+00  0.6376396963E+15 -0.3073385126E+00 -0.1930429228E-16  0.1503594595E+00
  0.1742953697E+01  0.1000000000E+01  0.0000000000E+00  0.1346805345E+00  0.2287339239E-18 -0.3752286470E-01  0.6376396963E+15  0.1352016685E+00  0.1221298570E-18 -0.3711963307E-01
  0.1646988935E+01  0.1000000000E+01  0.0000000000E+00 -0.1268579040E+00  0.3329612993E-18  0.6063525124E-01  0.6376396963E+15 -0.1267311729E+00  0.2998136342E-18  0.5968246767E-01
  0.1600000000E+01  0.1000000000E+01  0.0000000000E+00  0.8858154401E-01 -0.9812589110E-18 -0.8421972048E-01  0.6376396963E+15  0.8777182719E-01 -0.1104999078E-17 -0.8275017806E-01
  0.2000000000E+01  0.1000000000E+01  0.4698893521E-01 -0.1193915324E-01  0.7452552790E-18  0.4848307735E+02  0.6376396963E+15 -0.5463210501E-01  0.6863704787E-18  0.4865793903E+02
  0.1953011065E+01  0.1000000000E+01  0.4698893521E-01  0.1096415474E+02  0.1374837646E-15  0.1469004074E+01  0.6376396963E+15  0.1095315503E+02  0.1362748779E-15  0.1487594327E+01
  0.1857046303E+01  0.1000000000E+01  0.4698893521E-01  0.1167652822E+02  0.2925330727E-15 -0.1883373420E+01  0.6376396963E+15  0.1167960389E+02  0.2928871711E-15 -0.1879869527E+01
  0.1742953697E+01  0.1000000000E+01  0.4698893521E-01  0.5801446579E+01 -0.3677368307E-16 -0.6596706179E+00  0.6376396963E+15  0.5806200400E+01 -0.3643418705E-16 -0.6606647208E+00
  0.1646988935E+01  0.1000000000E+01  0.4698893521E-01  0.4467498019E+01 -0.1218634977E-15 -0.6546067733E+00  0.6376396963E+15  0.4466521403E+01 -0.1220102349E-15 -0.6500381404E+00
  0.1600000000E+01  0.1000000000E+01  0.4698893521E-01  0.2824320761E+01 -0.8629541945E-16  0.1852529320E+00  0.6376396963E+15  0.2831097338E+01 -0.8605775416E-16  0.1851028751E+00
  0.2000000000E+01  0.1000000000E+01  0.1429536967E+00 -0.2816197666E+00  0.2721991825E-17  0.5050347669E+02  0.6376396963E+15 -0.2571563088E+00  0.2744420932E-17  0.5044022767E+02
  0.1953011065E+01  0.1000000000E+01  0.1429536967E+00  0.2799615120E+01 -0.5136522503E-15  0.1642674213E+02  0.6376396963E+15  0.2785448533E+01 -0.5135879772E-15  0.1646517088E+02
  0.1857046303E+01  0.1000000000E+01  0.1429536967E+00  0.1275819521E+02 -0.2578501596E-15 -0.3585746267E+01  0.6376396963E+15  0.1275801153E+02 -0.2580794574E-15 -0.3576365318E+01
  0.1742953697E+01  0.1000000000E+01  0.1429536967E+00  0.9996420943E+01 -0.1618202783E-16 -0.4134606778E+01  0.6376396963E+15  0.9998479840E+01 -0.1651927933E-16 -0.4134017761E+01
  0.1646988935E+01  0.1000000000E+01  0.1429536967E+00  0.9255390032E+01 -0.1590102261E-15 -0.2159211161E+01  0.6376396963E+15  0.9249895991E+01 -0.1588121744E-15 -0.2151518280E+01
  0.1600000000E+01  0.1000000000E+01  0.1429536967E+00  0.5845705589E+01 -0.2837592350E-15 -0.1905304505E+01  0.6376396963E+15  0.5865446763E+01 -0.2843569900E-15 -0.1901232416E+01
  0.2000000000E+01  0.1000000000E+01  0.2570463033E+00  0.1906254749E-01  0.1103936590E-17  0.4987291233E+02  0.6376396963E+15  0.1823683690E-01  0.1060867100E-17  0.4987797598E+02