TITLE = "Generated from ../MESH/Convergence_0000000000.hmesh and Convergence_0000002700.hsol"
VARIABLES = "x","y","z","veloT_x","veloT_y","veloT_z","slr_4","velo_x","velo_y","velo_z"
ZONE I=6, J=6, K=1, F=POINT
  0.4000000000E+00  0.1000000000E+01  0.0000000000E+00 -0.1123250521E-01  0.2868317232E-19  0.6994615477E-02  0.6151438264E+15 -0.1156158511E-01  0.2896171844E-19  0.6586900116E-02
  0.3530110648E+00  0.1000000000E+01  0.0000000000E+00 -0.5318517048E-03  0.9490801973E-20 -0.5007184059E-03  0.6151438264E+15 -0.1195179637E-02  0.7311286141E-20 -0.5777064859E-03
  0.2570463033E+00  0.1000000000E+01  0.0000000000E+00  0.6655593876E-03  0.1608434138E-20  0.2248342571E-02  0.6151438264E+15  0.3339317253E-04  0.8741418350E-21  0.2231565963E-02
  0.1429536967E+00  0.1000000000E+01  0.0000000000E+00 -0.6057121627E-03  0.3563258425E-21 -0.1033038571E-02  0.6151438264E+15 -0.1234341085E-02  0.1896438167E-21 -0.1060959168E-02
  0.4698893521E-01  0.1000000000E+01  0.0000000000E+00  0.1876646702E-02 -0.1995759389E-20  0.1923959904E-02  0.6151438264E+15  0.1333606506E-02 -0.2111496178E-20  0.2025868432E-02
  0.0000000000E+00  0.1000000000E+01  0.0000000000E+00 -0.7496300828E-02  0.1189792051E-22  0.2038117962E-02  0.6151438264E+15 -0.7539454947E-02  0.8824266913E-23  0.2125542306E-02
  0.4000000000E+00  0.1000000000E+01  0.4698893521E-01  0.2658438637E+00  0.2729671139E-17 -0.3966141842E-01  0.6151438264E+15  0.2656618417E+00  0.2731025937E-17 -0.3558853284E-01
  0.3530110648E+00  0.1000000000E+01  0.4698893521E-01  0.1286667028E+00  0.2409824739E-17 -0.2579351785E-02  0.6151438264E+15  0.1274657163E+00  0.2418176436E-17  0.8163736044E-03
  0.2570463033E+00  0.1000000000E+01  0.4698893521E-01  0.1038631811E+00  0.8589635203E-18 -0.1286907325E-01  0.6151438264E+15  0.1028465181E+00  0.8644962703E-18 -0.1001690254E-01
  0.1429536967E+00  0.1000000000E+01  0.4698893521E-01  0.9666099322E-02  0.1655166167E-18 -0.9210984300E-02  0.6151438264E+15  0.8193031772E-02  0.1627050071E-18 -0.7309287508E-02
  0.4698893521E-01  0.1000000000E+01  0.4698893521E-01  0.4266245104E-03  0.2097680447E-19 -0.9895586517E-02  0.6151438264E+15 -0.1169488114E-02  0.1887111690E-19 -0.8440936348E-02
  0.0000000000E+00  0.1000000000E+01  0.4698893521E-01 -0.1807307140E-01  0.9171346725E-21  0.2325044066E-02  0.6151438264E+15 -0.1811332927E-01  0.9145626339E-21  0.2748352305E-02
  0.4000000000E+00  0.1000000000E+01  0.1429536967E+00  0.5769053744E+00  0.8975356197E-17 -0.1014424313E+00  0.6151438264E+15  0.5803984021E+00  0.9017869003E-17 -0.8227039411E-01
  0.3530110648E+00  0.1000000000E+01  0.1429536967E+00  0.3229685571E+00  0.5172120127E-17 -0.1424433616E+00  0.6151438264E+15  0.3251722660E+00  0.5064365656E-17 -0.1260269653E+00
  0.2570463033E+00  0.1000000000E+01  0.1429536967E+00  0.2354242972E+00  0.1772919364E-17 -0.9036201071E-01  0.6151438264E+15  0.2376829770E+00  0.1779974663E-17 -0.8037538063E-01
  0.1429536967E+00  0.1000000000E+01  0.1429536967E+00  0.4565346540E-01  0.4997231612E-18 -0.1120057221E+00  0.6151438264E+15  0.4622295878E-01  0.5024085379E-18 -0.1081354865E+00
  0.4698893521E-01  0.1000000000E+01  0.1429536967E+00 -0.2199874987E-02  0.8747655495E-19 -0.1305084870E-01  0.6151438264E+15 -0.3468964193E-02  0.7877978329E-19 -0.1118692735E-01
  0.0000000000E+00  0.1000000000E+01  0.1429536967E+00 -0.2133182378E-01 -0.1181307834E-22 -0.1368931729E-02  0.6151438264E+15 -0.2120612356E-01 -0.2215353938E-21 -0.7204103907E-03
  0.4000000000E+00  0.1000000000E+01  0.2570463033E+00  0.6330559611E+00  0.2101856452E-17 -0.3284826180E+00  0.6151438264E+15  0.6457719633E+00  0.2124495944E-17 -0.2918221943E+00
  0.3530110648E+00  0.1000000000E+01  0.2570463033E+00  0.4691725649E+00  0.1355600428E-17 -0.3800938719E+00  0.6151438264E+15  0.4822678079E+00  0.1800445723E-17 -0.3489448882E+00
  0.2570463033E+00  0.1000000000E+01  0.2570463033E+00  0.3013820609E+00  0.8758951833E-18 -0.2740071831E+00  0.6151438264E+15  0.3147134621E+00  0.8723353070E-18 -0.2545001743E+00
  0.1429536967E+00  0.1000000000E+01  0.2570463033E+00  0.9780619665E-01  0.8231016137E-18 -0.2783271019E+00  0.6151438264E+15  0.1053038775E+00  0.8205456508E-18 -0.2706066941E+00
  0.4698893521E-01  0.1000000000E+01  0.2570463033E+00  0.1517846143E-01  0.7420585507E-18 -0.5494376071E-01  0.6151438264E+15  0.1598228819E-01  0.7668667090E-18 -0.5304816120E-01
  0.0000000000E+00  0.1000000000E+01  0.2570463033E+00 -0.1413571246E-01 -0.3715033146E-20 -0.1581578427E-02  0.6151438264E+15 -0.1409888753E-01 -0.2820590735E-20 -0.9213003468E-03
  0.4000000000E+00  0.1000000000E+01  0.3530110648E+00  0.6421199273E+00  0.2038453036E-17 -0.5535960060E+00  0.6151438264E+15  0.6671279583E+00  0.2020078758E-17 -0.5163747748E+00
  0.3530110648E+00  0.1000000000E+01  0.3530110648E+00  0.4779949321E+00  0.1734379781E-17 -0.5775376435E+00  0.6151438264E+15  0.5026793952E+00  0.1743351757E-17 -0.5454193991E+00
  0.2570463033E+00  0.1000000000E+01  0.3530110648E+00  0.3085985119E+00  0.5486877105E-18 -0.4590381730E+00  0.6151438264E+15  0.3331729331E+00  0.2342115297E-18 -0.4370134049E+00
  0.1429536967E+00  0.1000000000E+01  0.3530110648E+00  0.9934550747E-01  0.1211177295E-17 -0.4091509842E+00  0.6151438264E+15  0.1161335175E+00  0.1131284608E-17 -0.3996534079E+00
  0.4698893521E-01  0.1000000000E+01  0.3530110648E+00  0.1675563572E-01  0.3612529126E-18 -0.1156504003E+00  0.6151438264E+15  0.2160051672E-01  0.3414817357E-18 -0.1133870663E+00
  0.0000000000E+00  0.1000000000E+01  0.3530110648E+00 -0.1425255107E-01  0.4754188802E-20 -0.1926891687E-02  0.6151438264E+15 -0.1419116589E-01  0.5551401513E-20 -0.1171136968E-02
  0.4000000000E+00  0.1000000000E+01  0.4000000000E+00  0.6147175684E+00  0.4018702037E-17 -0.6608581043E+00  0.6151438264E+15  0.6435900764E+00  0.4025731904E-17 -0.6335245131E+00
  0.3530110648E+00  0.1000000000E+01  0.4000000000E+00  0.5020396795E+00  0.3373164278E-17 -0.6799367353E+00  0.6151438264E+15  0.5304099444E+00  0.3290460256E-17 -0.6540589445E+00
  0.2570463033E+00  0.1000000000E+01  0.4000000000E+00  0.3083142397E+00  0.6441049294E-18 -0.5468307458E+00  0.6151438264E+15  0.3378155048E+00  0.7521935850E-18 -0.5285504901E+00
  0.1429536967E+00  0.1000000000E+01  0.4000000000E+00  0.1081735518E+00  0.1328115393E-17 -0.4716823839E+00  0.6151438264E+15  0.1293282887E+00  0.1384840435E-17 -0.4642712313E+00
  0.4698893521E-01  0.1000000000E+01  0.4000000000E+00  0.1312452510E-01  0.3173290065E-18 -0.1426044674E+00  0.6151438264E+15  0.1959375387E-01  0.3090631338E-18 -0.1404092514E+00
  0.0000000000E+00  0.1000000000E+01  0.4000000000E+00 -0.6914308490E-02  0.8028244332E-20 -0.3338635019E-02  0.6151438264E+15 -0.6738498781E-02  0.7787067186E-20 -0.2394409488E-02
ZONE I=6, J=6, K=1, F=POINT
  0.8000000000E+00  0.1000000000E+01  0.0000000000E+00  0.1683884000E-01 -0.8125238616E-19 -0.1146606880E-01  0.6151438264E+15  0.1761039952E-01 -0.8445381193E-19 -0.1145995952E-01
  0.7530110648E+00  0.1000000000E+01  0.0000000000E+00  0.1540066240E-02  0.7276052317E-19  0.5861141177E-02  0.6151438264E+15  0.2256865413E-02  0.8414446011E-19  0.5832191233E-02
  0.6570463033E+00  0.1000000000E+01  0.0000000000E+00 -0.5099533603E-03  0.1899901503E-19  0.1197364632E-03  0.6151438264E+15 -0.1139225743E-03  0.2426851012E-19  0.1532736770E-03
  0.5429536967E+00  0.1000000000E+01  0.0000000000E+00  0.8473313126E-03  0.2418146821E-19  0.6816243299E-02  0.6151438264E+15  0.1165842605E-02  0.3185973091E-19  0.6804119390E-02
  0.4469889352E+00  0.1000000000E+01  0.0000000000E+00 -0.1800068631E-02 -0.3343379766E-19  0.4393643207E-03  0.6151438264E+15 -0.1542863978E-02 -0.2905761277E-19  0.3105046862E-03
  0.4000000000E+00  0.1000000000E+01  0.0000000000E+00  0.1502671790E-01  0.3228123778E-19  0.6685746209E-02  0.6151438264E+15  0.1488166384E-01  0.3260405419E-19  0.6304505756E-02
  0.8000000000E+00  0.1000000000E+01  0.4698893521E-01  0.3074412562E+00 -0.2509175534E-16  0.3335359986E-01  0.6151438264E+15  0.3076035115E+00 -0.2508872774E-16  0.3184736407E-01
  0.7530110648E+00  0.1000000000E+01  0.4698893521E-01  0.5054407322E+00 -0.2450940604E-16 -0.2671608160E-01  0.6151438264E+15  0.5057650993E+00 -0.2452875948E-16 -0.2666475564E-01
  0.6570463033E+00  0.1000000000E+01  0.4698893521E-01  0.2936941132E+00 -0.5231040550E-17 -0.4894068328E-03  0.6151438264E+15  0.2940230930E+00 -0.5222885368E-17  0.3224563711E-02
  0.5429536967E+00  0.1000000000E+01  0.4698893521E-01  0.3281224879E+00  0.4151701265E-17  0.3751409799E-02  0.6151438264E+15  0.3289596267E+00  0.4169604106E-17  0.9517257650E-02
  0.4469889352E+00  0.1000000000E+01  0.4698893521E-01  0.2025453835E+00  0.3690830314E-17  0.5530840060E-02  0.6151438264E+15  0.2037275745E+00  0.3678637376E-17  0.1040404093E-01
  0.4000000000E+00  0.1000000000E+01  0.4698893521E-01  0.3074872615E+00  0.2490933806E-17 -0.4042572436E-01  0.6151438264E+15  0.3077805397E+00  0.2489446975E-17 -0.3633771588E-01
  0.8000000000E+00  0.1000000000E+01  0.1429536967E+00  0.9308190849E+00 -0.5646382213E-16 -0.2975951891E+00  0.6151438264E+15  0.9239123451E+00 -0.5663865201E-16 -0.2898641362E+00
  0.7530110648E+00  0.1000000000E+01  0.1429536967E+00  0.1245673254E+01 -0.3674346918E-16 -0.1585808633E+00  0.6151438264E+15  0.1238936312E+01 -0.3677959961E-16 -0.1460750809E+00
  0.6570463033E+00  0.1000000000E+01  0.1429536967E+00  0.8354144081E+00 -0.6135158894E-17 -0.1655562006E+00  0.6151438264E+15  0.8303654359E+00 -0.5914177464E-17 -0.1440968854E+00
  0.5429536967E+00  0.1000000000E+01  0.1429536967E+00  0.7902845951E+00  0.8886555379E-17 -0.3467182689E-01  0.6151438264E+15  0.7915353742E+00  0.8936972907E-17 -0.8774011990E-02
  0.4469889352E+00  0.1000000000E+01  0.1429536967E+00  0.5045148355E+00  0.8674055464E-17 -0.1216030121E+00  0.6151438264E+15  0.5096009110E+00  0.8534599497E-17 -0.9951371492E-01
  0.4000000000E+00  0.1000000000E+01  0.1429536967E+00  0.6276494246E+00  0.9679240288E-17 -0.1008947389E+00  0.6151438264E+15  0.6312035980E+00  0.9725252162E-17 -0.8173398606E-01
  0.8000000000E+00  0.1000000000E+01  0.2570463033E+00  0.1743212858E+01 -0.1717385235E-16 -0.7838975359E+00  0.6151438264E+15  0.1725401155E+01 -0.1720811383E-16 -0.7659010320E+00
  0.7530110648E+00  0.1000000000E+01  0.2570463033E+00  0.1661701207E+01 -0.1260725993E-16 -0.5377555592E+00  0.6151438264E+15  0.1643144090E+01 -0.1220633980E-16 -0.5155334223E+00
  0.6570463033E+00  0.1000000000E+01  0.2570463033E+00  0.1267884518E+01 -0.7077844892E-17 -0.4911623412E+00  0.6151438264E+15  0.1252501400E+01 -0.6657370820E-17 -0.4593770880E+00
  0.5429536967E+00  0.1000000000E+01  0.2570463033E+00  0.9884027812E+00  0.9648669207E-18 -0.2539187132E+00  0.6151438264E+15  0.9880998955E+00  0.9431264884E-18 -0.2129803338E+00
  0.4469889352E+00  0.1000000000E+01  0.2570463033E+00  0.6952397247E+00  0.2136278100E-17 -0.3695754417E+00  0.6151438264E+15  0.7082156749E+00  0.2650077611E-17 -0.3287783766E+00
  0.4000000000E+00  0.1000000000E+01  0.2570463033E+00  0.6631940865E+00  0.2131108022E-17 -0.3278361150E+00  0.6151438264E+15  0.6767285758E+00  0.2153824217E-17 -0.2912108798E+00
  0.8000000000E+00  0.1000000000E+01  0.3530110648E+00  0.1787869344E+01 -0.3741897022E-17 -0.1175492050E+01  0.6151438264E+15  0.1764935896E+01 -0.3739489965E-17 -0.1159187140E+01
  0.7530110648E+00  0.1000000000E+01  0.3530110648E+00  0.1749587285E+01  0.1596263770E-17 -0.9629338814E+00  0.6151438264E+15  0.1724616151E+01  0.1976443805E-18 -0.9450824445E+00
  0.6570463033E+00  0.1000000000E+01  0.3530110648E+00  0.1350706641E+01 -0.5295978115E-17 -0.7976706006E+00  0.6151438264E+15  0.1326213678E+01 -0.4793852537E-17 -0.7734524377E+00
  0.5429536967E+00  0.1000000000E+01  0.3530110648E+00  0.1040526980E+01 -0.5801581786E-17 -0.5206360971E+00  0.6151438264E+15  0.1033212608E+01 -0.5622851958E-17 -0.4857988169E+00
  0.4469889352E+00  0.1000000000E+01  0.3530110648E+00  0.6928311218E+00  0.1409258915E-17 -0.5851297617E+00  0.6151438264E+15  0.7087934898E+00  0.1099802643E-17 -0.5452734139E+00
  0.4000000000E+00  0.1000000000E+01  0.3530110648E+00  0.6744097208E+00  0.2010133121E-17 -0.5533979278E+00  0.6151438264E+15  0.6997641530E+00  0.1989917552E-17 -0.5161799276E+00
  0.8000000000E+00  0.1000000000E+01  0.4000000000E+00  0.1808451173E+01 -0.1060485700E-16 -0.1405763752E+01  0.6151438264E+15  0.1784862543E+01 -0.1059391413E-16 -0.1392955415E+01
  0.7530110648E+00  0.1000000000E+01  0.4000000000E+00  0.1649653853E+01 -0.6416418601E-17 -0.1134270975E+01  0.6151438264E+15  0.1622900826E+01 -0.6685857555E-17 -0.1119595202E+01
  0.6570463033E+00  0.1000000000E+01  0.4000000000E+00  0.1316032962E+01 -0.3207369456E-17 -0.9605168121E+00  0.6151438264E+15  0.1288181282E+01 -0.3196679618E-17 -0.9415019418E+00
  0.5429536967E+00  0.1000000000E+01  0.4000000000E+00  0.1003004290E+01  0.4751307578E-17 -0.6915094872E+00  0.6151438264E+15  0.9921189466E+00  0.4559186171E-17 -0.6660105935E+00
  0.4469889352E+00  0.1000000000E+01  0.4000000000E+00  0.7341406345E+00  0.4897192049E-17 -0.7113590383E+00  0.6151438264E+15  0.7502586781E+00  0.5206245600E-17 -0.6829513227E+00
  0.4000000000E+00  0.1000000000E+01  0.4000000000E+00  0.6259665957E+00  0.4041064650E-17 -0.6601002103E+00  0.6151438264E+15  0.6557435864E+00  0.4043292424E-17 -0.6327930740E+00
ZONE I=6, J=6, K=1, F=POINT
  0.1200000000E+01  0.1000000000E+01  0.0000000000E+00 -0.3309154579E-01  0.5849938542E-19  0.3692384095E-01  0.6151438264E+15 -0.3150560980E-01  0.6050578469E-19  0.3697243776E-01
  0.1153011065E+01  0.1000000000E+01  0.0000000000E+00 -0.6497666188E-02 -0.2822779264E-18 -0.9537666855E-02  0.6151438264E+15 -0.5017994628E-02 -0.2253921671E-18 -0.9462513100E-02
  0.1057046303E+01  0.1000000000E+01  0.0000000000E+00  0.7470747366E-03 -0.1453636166E-19  0.5913027393E-02  0.6151438264E+15  0.2315366880E-02  0.2602313733E-19  0.5919064587E-02
  0.9429536967E+00  0.1000000000E+01  0.0000000000E+00 -0.3675089003E-02  0.6170189745E-20 -0.8282997211E-02  0.6151438264E+15 -0.2283284981E-02  0.3717672753E-20 -0.8287767792E-02
  0.8469889352E+00  0.1000000000E+01  0.0000000000E+00  0.2226788764E-02 -0.1927101589E-19  0.5301587428E-02  0.6151438264E+15  0.3222978225E-02 -0.2052998942E-19  0.5268443950E-02
  0.8000000000E+00  0.1000000000E+01  0.0000000000E+00 -0.2787576701E-01 -0.9090102881E-19 -0.1093255359E-01  0.6151438264E+15 -0.2713275769E-01 -0.9427436794E-19 -0.1092754720E-01
  0.1200000000E+01  0.1000000000E+01  0.4698893521E-01  0.2065788950E+01 -0.4164766826E-16 -0.1925534981E+00  0.6151438264E+15  0.2068604504E+01 -0.4175135345E-16 -0.2145734966E+00
  0.1153011065E+01  0.1000000000E+01  0.4698893521E-01  0.1396410586E+01 -0.2652167885E-16 -0.4469494533E-01  0.6151438264E+15  0.1396656011E+01 -0.2650847175E-16 -0.6454521832E-01
  0.1057046303E+01  0.1000000000E+01  0.4698893521E-01  0.1285466516E+01 -0.1313836748E-16 -0.7698745382E-01  0.6151438264E+15  0.1285361735E+01 -0.1315746386E-16 -0.8950559028E-01
  0.9429536967E+00  0.1000000000E+01  0.4698893521E-01  0.7099674511E+00 -0.1603466311E-16 -0.6042065687E-01  0.6151438264E+15  0.7103941624E+00 -0.1604844219E-16 -0.6696972346E-01
  0.8469889352E+00  0.1000000000E+01  0.4698893521E-01  0.6266682926E+00 -0.2918302566E-16 -0.5417030734E-01  0.6151438264E+15  0.6265638373E+00 -0.2917614051E-16 -0.5747873976E-01
  0.8000000000E+00  0.1000000000E+01  0.4698893521E-01  0.2468606898E+00 -0.2439876245E-16  0.3539099061E-01  0.6151438264E+15  0.2472785488E+00 -0.2440409541E-16  0.3384975883E-01
  0.1200000000E+01  0.1000000000E+01  0.1429536967E+00  0.4650571815E+01 -0.5879212329E-16 -0.5566605840E+00  0.6151438264E+15  0.4654562577E+01 -0.5879894681E-16 -0.5787608757E+00
  0.1153011065E+01  0.1000000000E+01  0.1429536967E+00  0.3236841698E+01 -0.7002819386E-16 -0.7583746372E+00  0.6151438264E+15  0.3230059716E+01 -0.7032238793E-16 -0.7778541412E+00
  0.1057046303E+01  0.1000000000E+01  0.1429536967E+00  0.2924593532E+01 -0.4201935860E-16 -0.5412265570E+00  0.6151438264E+15  0.2916427406E+01 -0.4201502599E-16 -0.5531959044E+00
  0.9429536967E+00  0.1000000000E+01  0.1429536967E+00  0.1753216949E+01 -0.3765194523E-16 -0.6484887836E+00  0.6151438264E+15  0.1748518045E+01 -0.3764471584E-16 -0.6520465129E+00
  0.8469889352E+00  0.1000000000E+01  0.1429536967E+00  0.1531092748E+01 -0.5325975625E-16 -0.3134812715E+00  0.6151438264E+15  0.1525045829E+01 -0.5314110738E-16 -0.3099980562E+00
  0.8000000000E+00  0.1000000000E+01  0.1429536967E+00  0.8475643102E+00 -0.5866847977E-16 -0.2991856889E+00  0.6151438264E+15  0.8421490201E+00 -0.5886261289E-16 -0.2914300725E+00
  0.1200000000E+01  0.1000000000E+01  0.2570463033E+00  0.4492243169E+01 -0.1233553096E-16 -0.1560060422E+01  0.6151438264E+15  0.4490724128E+01 -0.1226189410E-16 -0.1559008155E+01
  0.1153011065E+01  0.1000000000E+01  0.2570463033E+00  0.4013549621E+01 -0.4610239313E-16 -0.1797010672E+01  0.6151438264E+15  0.4003591125E+01 -0.4496168679E-16 -0.1797384065E+01
  0.1057046303E+01  0.1000000000E+01  0.2570463033E+00  0.3298818496E+01 -0.4027317099E-16 -0.1392760890E+01  0.6151438264E+15  0.3285549057E+01 -0.4029494971E-16 -0.1393246408E+01
  0.9429536967E+00  0.1000000000E+01  0.2570463033E+00  0.2476162266E+01 -0.3669225307E-16 -0.1452504720E+01  0.6151438264E+15  0.2462996942E+01 -0.3597053487E-16 -0.1447415955E+01
  0.8469889352E+00  0.1000000000E+01  0.2570463033E+00  0.2048089232E+01 -0.1944604807E-16 -0.8515131316E+00  0.6151438264E+15  0.2031684330E+01 -0.1981828304E-16 -0.8379032820E+00
  0.8000000000E+00  0.1000000000E+01  0.2570463033E+00  0.1705696810E+01 -0.1732655927E-16 -0.7862907652E+00  0.6151438264E+15  0.1688398932E+01 -0.1733887973E-16 -0.7679931274E+00
  0.1200000000E+01  0.1000000000E+01  0.3530110648E+00  0.4452901038E+01  0.2098916195E-16 -0.2584958266E+01  0.6151438264E+15  0.4454764532E+01  0.2102268366E-16 -0.2574568352E+01
  0.1153011065E+01  0.1000000000E+01  0.3530110648E+00  0.3792704382E+01  0.6549039377E-18 -0.2488923827E+01  0.6151438264E+15  0.3786451453E+01  0.7664601920E-18 -0.2479843988E+01
  0.1057046303E+01  0.1000000000E+01  0.3530110648E+00  0.3214552364E+01 -0.1937206231E-16 -0.2098288231E+01  0.6151438264E+15  0.3201595776E+01 -0.1942922159E-16 -0.2092672864E+01
  0.9429536967E+00  0.1000000000E+01  0.3530110648E+00  0.2455815543E+01 -0.2338835848E-16 -0.1915633072E+01  0.6151438264E+15  0.2436367110E+01 -0.2278703573E-16 -0.1908275613E+01
  0.8469889352E+00  0.1000000000E+01  0.3530110648E+00  0.2141404512E+01 -0.8595879234E-17 -0.1352052472E+01  0.6151438264E+15  0.2116980195E+01 -0.9413245887E-17 -0.1338306127E+01
  0.8000000000E+00  0.1000000000E+01  0.3530110648E+00  0.1740942821E+01 -0.3678941202E-17 -0.1175702306E+01  0.6151438264E+15  0.1718842204E+01 -0.3669521659E-17 -0.1159453313E+01
  0.1200000000E+01  0.1000000000E+01  0.4000000000E+00  0.4037410877E+01  0.2415508868E-16 -0.2825189448E+01  0.6151438264E+15  0.4038504240E+01  0.2418267125E-16 -0.2811014618E+01
  0.1153011065E+01  0.1000000000E+01  0.4000000000E+00  0.3742524326E+01  0.1482057840E-16 -0.2912641108E+01  0.6151438264E+15  0.3737340059E+01  0.1457003356E-16 -0.2898523959E+01
  0.1057046303E+01  0.1000000000E+01  0.4000000000E+00  0.3037861460E+01 -0.8994585473E-17 -0.2392634691E+01  0.6151438264E+15  0.3026593768E+01 -0.9110519999E-17 -0.2382536836E+01
  0.9429536967E+00  0.1000000000E+01  0.4000000000E+00  0.2419685136E+01 -0.2285517572E-16 -0.2183685098E+01  0.6151438264E+15  0.2398420418E+01 -0.2254123876E-16 -0.2175391291E+01
  0.8469889352E+00  0.1000000000E+01  0.4000000000E+00  0.2007889334E+01 -0.1668004509E-16 -0.1543084113E+01  0.6151438264E+15  0.1981109482E+01 -0.1683123596E-16 -0.1531732235E+01
  0.8000000000E+00  0.1000000000E+01  0.4000000000E+00  0.1803770286E+01 -0.1058171101E-16 -0.1408882728E+01  0.6151438264E+15  0.1780214951E+01 -0.1056908020E-16 -0.1395776461E+01
ZONE I=6, J=6, K=1, F=POINT
  0.1600000000E+01  0.1000000000E+01  0.0000000000E+00  0.1289783372E+00 -0.8884020029E-18 -0.7228296974E-01  0.6151438264E+15  0.1298292093E+00 -0.1009825266E-17 -0.7215039906E-01
  0.1553011065E+01  0.1000000000E+01  0.0000000000E+00  0.8873385902E-02 -0.1238441772E-17  0.4538343266E-01  0.6151438264E+15  0.1031842989E-01 -0.1340497773E-17  0.4519803578E-01
  0.1457046303E+01  0.1000000000E+01  0.0000000000E+00 -0.8857676892E-02 -0.4712662714E-19 -0.3280841025E-02  0.6151438264E+15 -0.7382267650E-02 -0.9989907486E-19 -0.3268123125E-02
  0.1342953697E+01  0.1000000000E+01  0.0000000000E+00  0.3683323147E-02  0.3134679698E-18  0.2977369022E-01  0.6151438264E+15  0.5248132064E-02  0.4008458554E-18  0.2973885480E-01
  0.1246988935E+01  0.1000000000E+01  0.0000000000E+00 -0.9344668510E-02  0.1213175966E-18 -0.8288868908E-02  0.6151438264E+15 -0.7616343542E-02  0.1298021361E-18 -0.8115527250E-02
  0.1200000000E+01  0.1000000000E+01  0.0000000000E+00  0.5607429352E-01  0.6212902623E-19  0.3700102135E-01  0.6151438264E+15  0.5788237645E-01  0.6455197005E-19  0.3701564210E-01
  0.1600000000E+01  0.1000000000E+01  0.4698893521E-01  0.2949966274E+01 -0.8955927338E-16  0.2053696438E+00  0.6151438264E+15  0.2951816745E+01 -0.8959580627E-16  0.2029709161E+00
  0.1553011065E+01  0.1000000000E+01  0.4698893521E-01  0.3387846652E+01 -0.4539721299E-16 -0.2956863773E+00  0.6151438264E+15  0.3391694857E+01 -0.4527101144E-16 -0.3009704424E+00
  0.1457046303E+01  0.1000000000E+01  0.4698893521E-01  0.2367120848E+01 -0.5271797032E-17 -0.9711202690E-01  0.6151438264E+15  0.2371489106E+01 -0.5408773679E-17 -0.1066914591E+00
  0.1342953697E+01  0.1000000000E+01  0.4698893521E-01  0.2339951490E+01  0.2926313996E-16 -0.6012941999E-01  0.6151438264E+15  0.2344316977E+01  0.2928863553E-16 -0.7580473324E-01
  0.1246988935E+01  0.1000000000E+01  0.4698893521E-01  0.1786328969E+01 -0.6408660898E-17 -0.1801148679E-01  0.6151438264E+15  0.1790134551E+01 -0.6223721399E-17 -0.3934945393E-01
  0.1200000000E+01  0.1000000000E+01  0.4698893521E-01  0.2163413777E+01 -0.4583944037E-16 -0.1982096640E+00  0.6151438264E+15  0.2164482606E+01 -0.4592164519E-16 -0.2198779639E+00
  0.1600000000E+01  0.1000000000E+01  0.1429536967E+00  0.5999357820E+01 -0.2683706344E-15 -0.1976122554E+01  0.6151438264E+15  0.5992104077E+01 -0.2679039853E-15 -0.1981823774E+01
  0.1553011065E+01  0.1000000000E+01  0.1429536967E+00  0.7608498855E+01 -0.1482341398E-15 -0.1106624772E+01  0.6151438264E+15  0.7618519456E+01 -0.1486502066E-15 -0.1115219044E+01
  0.1457046303E+01  0.1000000000E+01  0.1429536967E+00  0.5441971814E+01  0.3097403264E-16 -0.1006327262E+01  0.6151438264E+15  0.5452356279E+01  0.3141182393E-16 -0.1020923339E+01
  0.1342953697E+01  0.1000000000E+01  0.1429536967E+00  0.5371307623E+01  0.1021558974E-15 -0.2021447870E+00  0.6151438264E+15  0.5381436897E+01  0.1025243100E-15 -0.2212311384E+00
  0.1246988935E+01  0.1000000000E+01  0.1429536967E+00  0.4062186320E+01  0.2738986953E-16 -0.6882668913E+00  0.6151438264E+15  0.4070433294E+01  0.2702240787E-16 -0.7099993826E+00
  0.1200000000E+01  0.1000000000E+01  0.1429536967E+00  0.4815548126E+01 -0.6296148280E-16 -0.5515048343E+00  0.6151438264E+15  0.4809954681E+01 -0.6286304632E-16 -0.5741845641E+00
  0.1600000000E+01  0.1000000000E+01  0.2570463033E+00  0.1041889815E+02  0.8267994977E-16 -0.4092851013E+01  0.6151438264E+15  0.1043585928E+02  0.8265643908E-16 -0.4099783187E+01
  0.1553011065E+01  0.1000000000E+01  0.2570463033E+00  0.9239206250E+01  0.1074231641E-15 -0.2910558162E+01  0.6151438264E+15  0.9256884284E+01  0.1073137097E-15 -0.2913260476E+01
  0.1457046303E+01  0.1000000000E+01  0.2570463033E+00  0.7745886857E+01  0.1786511175E-15 -0.2575103399E+01  0.6151438264E+15  0.7760013455E+01  0.1793285347E-15 -0.2578784229E+01
  0.1342953697E+01  0.1000000000E+01  0.2570463033E+00  0.6095733348E+01  0.1314841262E-15 -0.1204979533E+01  0.6151438264E+15  0.6107649094E+01  0.1321234773E-15 -0.1208216476E+01
  0.1246988935E+01  0.1000000000E+01  0.2570463033E+00  0.4913366186E+01  0.3895440395E-16 -0.1808819338E+01  0.6151438264E+15  0.4920937196E+01  0.3932237403E-16 -0.1808585883E+01
  0.1200000000E+01  0.1000000000E+01  0.2570463033E+00  0.4532234282E+01 -0.1263509507E-16 -0.1551350841E+01  0.6151438264E+15  0.4530372186E+01 -0.1253636620E-16 -0.1552577267E+01
  0.1600000000E+01  0.1000000000E+01  0.3530110648E+00  0.8520296274E+01  0.1630049696E-15 -0.4855021912E+01  0.6151438264E+15  0.8530860853E+01  0.1629324555E-15 -0.4852642532E+01
  0.1553011065E+01  0.1000000000E+01  0.3530110648E+00  0.8586209359E+01  0.1749870244E-15 -0.4624626846E+01  0.6151438264E+15  0.8601604389E+01  0.1750794012E-15 -0.4622679183E+01
  0.1457046303E+01  0.1000000000E+01  0.3530110648E+00  0.7236332155E+01  0.1803013357E-15 -0.3863067639E+01  0.6151438264E+15  0.7249935959E+01  0.1809355191E-15 -0.3857792974E+01
  0.1342953697E+01  0.1000000000E+01  0.3530110648E+00  0.5933801026E+01  0.1407633251E-15 -0.2703616911E+01  0.6151438264E+15  0.5943653632E+01  0.1409890340E-15 -0.2695280956E+01
  0.1246988935E+01  0.1000000000E+01  0.3530110648E+00  0.4587574848E+01  0.5505419121E-16 -0.2680025857E+01  0.6151438264E+15  0.4593239669E+01  0.5488089966E-16 -0.2668810093E+01
  0.1200000000E+01  0.1000000000E+01  0.3530110648E+00  0.4529720247E+01  0.2107880201E-16 -0.2585638771E+01  0.6151438264E+15  0.4527998558E+01  0.2109493768E-16 -0.2574842604E+01
  0.1600000000E+01  0.1000000000E+01  0.4000000000E+00  0.8554184835E+01  0.1573344867E-15 -0.5711656498E+01  0.6151438264E+15  0.8566799052E+01  0.1572798604E-15 -0.5716803857E+01
  0.1553011065E+01  0.1000000000E+01  0.4000000000E+00  0.7762174750E+01  0.1815140631E-15 -0.4755869573E+01  0.6151438264E+15  0.7777539031E+01  0.1814113422E-15 -0.4758013197E+01
  0.1457046303E+01  0.1000000000E+01  0.4000000000E+00  0.6978387647E+01  0.1671457378E-15 -0.4451322149E+01  0.6151438264E+15  0.6988875172E+01  0.1671825955E-15 -0.4446817087E+01
  0.1342953697E+01  0.1000000000E+01  0.4000000000E+00  0.5529896923E+01  0.1443358764E-15 -0.3092869448E+01  0.6151438264E+15  0.5539047403E+01  0.1448356764E-15 -0.3082102636E+01
  0.1246988935E+01  0.1000000000E+01  0.4000000000E+00  0.4555903272E+01  0.5230571447E-16 -0.3196435383E+01  0.6151438264E+15  0.4560487028E+01  0.5219776930E-16 -0.3181352991E+01
  0.1200000000E+01  0.1000000000E+01  0.4000000000E+00  0.4011641646E+01  0.2440920350E-16 -0.2814108139E+01  0.6151438264E+15  0.4014795198E+01  0.2442440587E-16 -0.2802080332E+01
ZONE I=6, J=6, K=1, F=POINT
  0.2000000000E+01  0.1000000000E+01  0.0000000000E+00  0.2402438808E+01  0.7365317346E-19  0.2123401470E+02  0.6151438263E+15  0.2430438732E+01  0.9442443350E-19  0.2215523767E+02
  0.1953011065E+01  0.1000000000E+01  0.0000000000E+00  0.1290206604E+01 -0.3735677216E-16 -0.1373150206E+00  0.6151438264E+15  0.1295303043E+01 -0.3611060884E-16 -0.1504122075E+00
  0.1857046303E+01  0.1000000000E+01  0.0000000000E+00 -0.3082730151E+00 -0.1891011918E-16  0.1518339175E+00  0.6151438264E+15 -0.3078291883E+00 -0.1933362988E-16  0.1503905660E+00
  0.1742953697E+01  0.1000000000E+01  0.0000000000E+00  0.1330030824E+00  0.2325672834E-18 -0.3779811225E-01  0.6151438264E+15  0.1346992865E+00  0.1321077527E-18 -0.3740799971E-01
  0.1646988935E+01  0.1000000000E+01  0.0000000000E+00 -0.1288568274E+00  0.3540508021E-18  0.6066992339E-01  0.6151438264E+15 -0.1270473892E+00  0.3133098381E-18  0.5972037024E-01
  0.1600000000E+01  0.1000000000E+01  0.0000000000E+00  0.8756833686E-01 -0.9663823541E-18 -0.8449058296E-01  0.6151438264E+15  0.8835269418E-01 -0.1090421755E-17 -0.8298894206E-01
  0.2000000000E+01  0.1000000000E+01  0.4698893521E-01 -0.1156129762E-01  0.7430757113E-18  0.4848158878E+02  0.6151438264E+15 -0.5402134208E-01  0.6856486142E-18  0.4865753966E+02
  0.1953011065E+01  0.1000000000E+01  0.4698893521E-01  0.1096910507E+02  0.1396312267E-15  0.1474849876E+01  0.6151438264E+15  0.1095856721E+02  0.1384149519E-15  0.1493309337E+01
  0.1857046303E+01  0.1000000000E+01  0.4698893521E-01  0.1172064749E+02  0.2986956125E-15 -0.1873517305E+01  0.6151438264E+15  0.1172453846E+02  0.2990980148E-15 -0.1872102565E+01
  0.1742953697E+01  0.1000000000E+01  0.4698893521E-01  0.5836552815E+01 -0.3027919632E-16 -0.6645581966E+00  0.6151438264E+15  0.5841722323E+01 -0.2995175534E-16 -0.6692739966E+00
  0.1646988935E+01  0.1000000000E+01  0.4698893521E-01  0.4443564556E+01 -0.1203097636E-15 -0.6530753198E+00  0.6151438264E+15  0.4444497455E+01 -0.1205532591E-15 -0.6538042735E+00
  0.1600000000E+01  0.1000000000E+01  0.4698893521E-01  0.2787640301E+01 -0.8673971625E-16  0.1910804168E+00  0.6151438264E+15  0.2798990131E+01 -0.8659459201E-16  0.1833956635E+00
  0.2000000000E+01  0.1000000000E+01  0.1429536967E+00 -0.2812123979E+00  0.2708445131E-17  0.5050178331E+02  0.6151438264E+15 -0.2567105005E+00  0.2732165000E-17  0.5043964427E+02
  0.1953011065E+01  0.1000000000E+01  0.1429536967E+00  0.2804250817E+01 -0.5140685273E-15  0.1647507768E+02  0.6151438264E+15  0.2793852296E+01 -0.5136189458E-15  0.1651241922E+02
  0.1857046303E+01  0.1000000000E+01  0.1429536967E+00  0.1278064254E+02 -0.2510311376E-15 -0.3561190377E+01  0.6151438264E+15  0.1278413533E+02 -0.2515081133E-15 -0.3557068187E+01
  0.1742953697E+01  0.1000000000E+01  0.1429536967E+00  0.9936668253E+01 -0.8167272917E-18 -0.4221760277E+01  0.6151438264E+15  0.9941277946E+01 -0.9508069310E-18 -0.4228894977E+01
  0.1646988935E+01  0.1000000000E+01  0.1429536967E+00  0.9080013786E+01 -0.1561731760E-15 -0.2247736721E+01  0.6151438264E+15  0.9081316400E+01 -0.1558767945E-15 -0.2252163811E+01
  0.1600000000E+01  0.1000000000E+01  0.1429536967E+00  0.5630487885E+01 -0.2847846332E-15 -0.1975783149E+01  0.6151438264E+15  0.5661280686E+01 -0.2847727674E-15 -0.1986413213E+01
  0.2000000000E+01  0.1000000000E+01  0.2570463033E+00  0.1898633147E-01  0.1083742446E-17  0.4987149692E+02  0.6151438264E+15  0.1818984321E-01  0.1035905367E-17  0.4987690480E+02