TITLE = "Generated from ../MESH/Convergence_0000000000.hmesh and Convergence_0000008300.hsol"
VARIABLES = "x","y","z","veloT_x","veloT_y","veloT_z","slr_4","velo_x","velo_y","velo_z"
ZONE I=6, J=6, K=1, F=POINT
  0.4000000000E+00  0.1000000000E+01  0.0000000000E+00 -0.7487121906E-02  0.1709721454E-19  0.8324676776E-02  0.9688066493E+15  0.2642545625E-01  0.3714106496E-19  0.6767621195E-02
  0.3530110648E+00  0.1000000000E+01  0.0000000000E+00  0.5844028531E-02 -0.4103038854E-20  0.9651581869E-04  0.9688066493E+15  0.3795513954E-01 -0.3818916877E-20 -0.8680788924E-03
  0.2570463033E+00  0.1000000000E+01  0.0000000000E+00  0.7440384537E-02 -0.4454332453E-20  0.2618379636E-02  0.9688066493E+15  0.3092658225E-01 -0.4734318482E-20  0.1542793894E-02
  0.1429536967E+00  0.1000000000E+01  0.0000000000E+00  0.6101755162E-02 -0.8179905096E-21 -0.1486703026E-02  0.9688066493E+15  0.2628254484E-01 -0.1853924243E-20 -0.1271271776E-02
  0.4698893521E-01  0.1000000000E+01  0.0000000000E+00  0.6117274674E-02 -0.4884333042E-20  0.2559921830E-02  0.9688066493E+15  0.2182116923E-01 -0.2228006823E-20 -0.2556039431E-03
  0.0000000000E+00  0.1000000000E+01  0.0000000000E+00 -0.7955544801E-02  0.3530361022E-22  0.2172939949E-02  0.9688066493E+15 -0.5651855097E-02 -0.4027520033E-23 -0.1111550147E-03
  0.4000000000E+00  0.1000000000E+01  0.4698893521E-01  0.2262997872E+00  0.3792758331E-17  0.1194193562E+00  0.9688066493E+15  0.3505973628E+00  0.3084885255E-17  0.1403355714E+00
  0.3530110648E+00  0.1000000000E+01  0.4698893521E-01  0.9224729612E-01  0.3409494095E-17  0.1481929404E+00  0.9688066493E+15  0.2062767016E+00  0.2201004857E-17  0.1489936918E+00
  0.2570463033E+00  0.1000000000E+01  0.4698893521E-01  0.7274390630E-01  0.1602712311E-17  0.1070164001E+00  0.9688066493E+15  0.1587631370E+00  0.1462162889E-17  0.8817845039E-01
  0.1429536967E+00  0.1000000000E+01  0.4698893521E-01 -0.1740062810E-01  0.4467998308E-18  0.7899733644E-01  0.9688066493E+15  0.5921294059E-01  0.6270368800E-18  0.3214294201E-01
  0.4698893521E-01  0.1000000000E+01  0.4698893521E-01 -0.1607801178E-01  0.6796501770E-19  0.3350521154E-01  0.9688066493E+15  0.3735660844E-01  0.1452459336E-18 -0.2191107150E-01
  0.0000000000E+00  0.1000000000E+01  0.4698893521E-01 -0.1872793997E-01  0.1260415415E-20 -0.8817224411E-03  0.9688066493E+15 -0.1620098453E-01  0.1580031426E-21 -0.1659626121E-01
  0.4000000000E+00  0.1000000000E+01  0.1429536967E+00  0.6170141505E+00  0.1034493077E-16  0.4525139942E-01  0.9688066493E+15  0.7844452135E+00  0.1262187062E-16  0.9217724561E-01
  0.3530110648E+00  0.1000000000E+01  0.1429536967E+00  0.3781657648E+00  0.5838828805E-17 -0.5748528311E-04  0.9688066493E+15  0.5149894782E+00  0.5489172041E-17  0.3807047696E-01
  0.2570463033E+00  0.1000000000E+01  0.1429536967E+00  0.2584580341E+00  0.3337303225E-17  0.3657280135E-01  0.9688066493E+15  0.3778571085E+00  0.3374919456E-17  0.4632091904E-01
  0.1429536967E+00  0.1000000000E+01  0.1429536967E+00  0.7001946207E-01  0.1419963276E-17 -0.5788409784E-02  0.9688066493E+15  0.1769685024E+00  0.1398367229E-17 -0.4561307007E-01
  0.4698893521E-01  0.1000000000E+01  0.1429536967E+00  0.4110299382E-01  0.1518760626E-18  0.3595204170E-01  0.9688066493E+15  0.9183348953E-01  0.4251330169E-18 -0.2261218792E-01
  0.0000000000E+00  0.1000000000E+01  0.1429536967E+00 -0.2106259662E-01  0.1313651110E-20 -0.7399506729E-02  0.9688066493E+15 -0.2211665180E-01 -0.3598501437E-20 -0.2348930570E-01
  0.4000000000E+00  0.1000000000E+01  0.2570463033E+00  0.7665959997E+00  0.5341410332E-17 -0.3641242285E+00  0.9688066493E+15  0.1002378523E+01  0.5546802445E-17 -0.2916192516E+00
  0.3530110648E+00  0.1000000000E+01  0.2570463033E+00  0.6333342335E+00  0.6381178091E-17 -0.3689337343E+00  0.9688066493E+15  0.8094066085E+00  0.6798177975E-17 -0.3401630688E+00
  0.2570463033E+00  0.1000000000E+01  0.2570463033E+00  0.4065658460E+00  0.3029056765E-17 -0.2159750036E+00  0.9688066493E+15  0.5651880299E+00  0.3036639114E-17 -0.2193952376E+00
  0.1429536967E+00  0.1000000000E+01  0.2570463033E+00  0.2035805664E+00  0.2054589157E-17 -0.2156006602E+00  0.9688066493E+15  0.3449476702E+00  0.2053588734E-17 -0.2444506356E+00
  0.4698893521E-01  0.1000000000E+01  0.2570463033E+00  0.1257885014E+00  0.1513987593E-17 -0.3122740979E-01  0.9688066493E+15  0.1823335902E+00  0.1002414132E-17 -0.7061293476E-01
  0.0000000000E+00  0.1000000000E+01  0.2570463033E+00 -0.1380230866E-01 -0.4016982206E-20 -0.1062346952E-01  0.9688066493E+15 -0.1444332381E-01  0.1389860388E-20 -0.1818296405E-01
  0.4000000000E+00  0.1000000000E+01  0.3530110648E+00  0.8090677802E+00  0.5201419581E-17 -0.6184183718E+00  0.9688066493E+15  0.1214473856E+01  0.4905440599E-17 -0.6038089177E+00
  0.3530110648E+00  0.1000000000E+01  0.3530110648E+00  0.7089126207E+00  0.4651374179E-17 -0.6029780845E+00  0.9688066493E+15  0.9505657014E+00  0.4579810454E-17 -0.6313636430E+00
  0.2570463033E+00  0.1000000000E+01  0.3530110648E+00  0.4972628756E+00 -0.1882758409E-18 -0.4368218958E+00  0.9688066493E+15  0.6651283597E+00  0.3850130294E-18 -0.4757035563E+00
  0.1429536967E+00  0.1000000000E+01  0.3530110648E+00  0.2947288260E+00  0.1472096833E-17 -0.3758875402E+00  0.9688066493E+15  0.4455873458E+00  0.1849052368E-17 -0.4180514467E+00
  0.4698893521E-01  0.1000000000E+01  0.3530110648E+00  0.1888226684E+00  0.6182126676E-18 -0.1141103382E+00  0.9688066493E+15  0.2386264582E+00  0.9363781877E-18 -0.1497160208E+00
  0.0000000000E+00  0.1000000000E+01  0.3530110648E+00 -0.1385497781E-01  0.9838338924E-20 -0.1581776114E-01  0.9688066493E+15 -0.1502106584E-01  0.9459119358E-20 -0.1693801930E-01
  0.4000000000E+00  0.1000000000E+01  0.4000000000E+00  0.8729230793E+00  0.6296807487E-17 -0.6722907623E+00  0.9688066493E+15  0.1296191852E+01  0.6423963773E-17 -0.7631114105E+00
  0.3530110648E+00  0.1000000000E+01  0.4000000000E+00  0.8111379458E+00  0.5039749560E-17 -0.7179295998E+00  0.9688066493E+15  0.1050641732E+01  0.4870192301E-17 -0.7606604878E+00
  0.2570463033E+00  0.1000000000E+01  0.4000000000E+00  0.5526283843E+00  0.2960109841E-17 -0.5776105200E+00  0.9688066493E+15  0.7193987810E+00  0.3144531609E-17 -0.5904831893E+00
  0.1429536967E+00  0.1000000000E+01  0.4000000000E+00  0.3553956207E+00  0.2966679127E-17 -0.4764056159E+00  0.9688066493E+15  0.5073409060E+00  0.2605092978E-17 -0.4972469026E+00
  0.4698893521E-01  0.1000000000E+01  0.4000000000E+00  0.2196020866E+00  0.6263494268E-18 -0.1640451877E+00  0.9688066493E+15  0.2629484231E+00  0.6710981683E-18 -0.1804841719E+00
  0.0000000000E+00  0.1000000000E+01  0.4000000000E+00 -0.6179154821E-02  0.8077092111E-20 -0.1908308946E-01  0.9688066493E+15 -0.7177881904E-02  0.4519195695E-20 -0.1333496518E-01
ZONE I=6, J=6, K=1, F=POINT
  0.8000000000E+00  0.1000000000E+01  0.0000000000E+00  0.1484281895E-01 -0.1271129057E-18 -0.1042353553E-01  0.9688066493E+15  0.9058710330E-01 -0.8895017613E-19 -0.1206542133E-01
  0.7530110648E+00  0.1000000000E+01  0.0000000000E+00  0.1895085677E-02 -0.1566384907E-19  0.6973433904E-02  0.9688066493E+15  0.7297367452E-01  0.1644185641E-17  0.5458746372E-02
  0.6570463033E+00  0.1000000000E+01  0.0000000000E+00  0.2721717503E-02  0.8258833832E-19  0.1091728931E-02  0.9688066493E+15  0.6363696238E-01  0.8671591753E-18 -0.9890955986E-03
  0.5429536967E+00  0.1000000000E+01  0.0000000000E+00  0.4257418402E-02  0.1260969428E-18  0.7727665852E-02  0.9688066493E+15  0.5329168709E-01  0.1400773706E-17  0.5168064348E-02
  0.4469889352E+00  0.1000000000E+01  0.0000000000E+00  0.1448020832E-02  0.5863728382E-19  0.1355209198E-02  0.9688066493E+15  0.4076897788E-01  0.1267117177E-17 -0.6452667477E-03
  0.4000000000E+00  0.1000000000E+01  0.0000000000E+00  0.1941617175E-01  0.2055803969E-19  0.8024540306E-02  0.9688066493E+15  0.5393647842E-01  0.4004143545E-19  0.6471890941E-02
  0.8000000000E+00  0.1000000000E+01  0.4698893521E-01  0.3010127523E+00 -0.2081053346E-16  0.1721839415E+00  0.9688066493E+15  0.5152509067E+00 -0.2329260166E-16  0.2532770090E+00
  0.7530110648E+00  0.1000000000E+01  0.4698893521E-01  0.5018583618E+00 -0.1504834148E-16  0.1185245753E+00  0.9688066493E+15  0.7026468145E+00 -0.2659531632E-16  0.1993878725E+00
  0.6570463033E+00  0.1000000000E+01  0.4698893521E-01  0.2787622563E+00 -0.4661816779E-17  0.1393543399E+00  0.9688066493E+15  0.4526603416E+00 -0.2409959449E-17  0.2367732405E+00
  0.5429536967E+00  0.1000000000E+01  0.4698893521E-01  0.2935341786E+00  0.3554359963E-17  0.1431703369E+00  0.9688066493E+15  0.4479255147E+00  0.6243617019E-17  0.2417269334E+00
  0.4469889352E+00  0.1000000000E+01  0.4698893521E-01  0.1579545745E+00  0.4752857916E-17  0.1606249868E+00  0.9688066493E+15  0.2977093933E+00  0.3855412074E-17  0.2122902266E+00
  0.4000000000E+00  0.1000000000E+01  0.4698893521E-01  0.2680241419E+00  0.3564403588E-17  0.1186874997E+00  0.9688066493E+15  0.3934770723E+00  0.2836169729E-17  0.1395803781E+00
  0.8000000000E+00  0.1000000000E+01  0.1429536967E+00  0.1240745522E+01 -0.5554407002E-16 -0.2842156657E+00  0.9688066493E+15  0.1466164448E+01 -0.4924592141E-16 -0.1309422584E+00
  0.7530110648E+00  0.1000000000E+01  0.1429536967E+00  0.1533759999E+01 -0.3092706290E-16 -0.1223767218E+00  0.9688066493E+15  0.1741405045E+01 -0.3332901106E-16  0.2345067083E-01
  0.6570463033E+00  0.1000000000E+01  0.1429536967E+00  0.1045968732E+01  0.3017828934E-17 -0.9316279058E-01  0.9688066493E+15  0.1230032802E+01 -0.4383711404E-17  0.2398284378E-01
  0.5429536967E+00  0.1000000000E+01  0.1429536967E+00  0.8947215117E+00  0.8649612339E-17  0.7566868103E-01  0.9688066493E+15  0.1077359893E+01  0.1393159408E-16  0.1536448783E+00
  0.4469889352E+00  0.1000000000E+01  0.1429536967E+00  0.5466114369E+00  0.1048221786E-16  0.1666701986E-01  0.9688066493E+15  0.7281824090E+00  0.8933833235E-17  0.7323653602E-01
  0.4000000000E+00  0.1000000000E+01  0.1429536967E+00  0.6687127958E+00  0.1101683672E-16  0.4581728003E-01  0.9688066493E+15  0.8363260568E+00  0.1334104457E-16  0.9273046043E-01
  0.8000000000E+00  0.1000000000E+01  0.2570463033E+00  0.2507992989E+01 -0.1004306151E-16 -0.1019044820E+01  0.9688066493E+15  0.2745311516E+01 -0.9576301154E-17 -0.8431496870E+00
  0.7530110648E+00  0.1000000000E+01  0.2570463033E+00  0.2358067645E+01 -0.3549577972E-17 -0.7581188991E+00  0.9688066493E+15  0.2582068246E+01 -0.2227811831E-17 -0.5856519820E+00
  0.6570463033E+00  0.1000000000E+01  0.2570463033E+00  0.1818743093E+01  0.1630248619E-17 -0.7131315628E+00  0.9688066493E+15  0.2005525626E+01 -0.3566497943E-17 -0.4996673588E+00
  0.5429536967E+00  0.1000000000E+01  0.2570463033E+00  0.1299234870E+01  0.3067191724E-17 -0.4634005818E+00  0.9688066493E+15  0.1515009567E+01  0.6614715495E-17 -0.2065586534E+00
  0.4469889352E+00  0.1000000000E+01  0.2570463033E+00  0.8364852365E+00  0.6796727826E-17 -0.4742012494E+00  0.9688066493E+15  0.1096102351E+01  0.8465523273E-17 -0.3252462470E+00
  0.4000000000E+00  0.1000000000E+01  0.2570463033E+00  0.7984897320E+00  0.5351249001E-17 -0.3634537058E+00  0.9688066493E+15  0.1035181011E+01  0.5586884514E-17 -0.2909679774E+00
  0.8000000000E+00  0.1000000000E+01  0.3530110648E+00  0.2920772870E+01  0.2406090822E-17 -0.1503001915E+01  0.9688066493E+15  0.3171866627E+01  0.2008872754E-17 -0.1379841514E+01
  0.7530110648E+00  0.1000000000E+01  0.3530110648E+00  0.2809070499E+01 -0.2150705879E-17 -0.1251872454E+01  0.9688066493E+15  0.3027088622E+01  0.1008133592E-16 -0.1145951628E+01
  0.6570463033E+00  0.1000000000E+01  0.3530110648E+00  0.2241910409E+01 -0.3170210150E-17 -0.1041461983E+01  0.9688066493E+15  0.2289659771E+01 -0.7513094122E-17 -0.8488548521E+00
  0.5429536967E+00  0.1000000000E+01  0.3530110648E+00  0.1539930484E+01  0.4389462099E-17 -0.7193778102E+00  0.9688066493E+15  0.1787783750E+01 -0.1373392003E-16 -0.3765651895E+00
  0.4469889352E+00  0.1000000000E+01  0.3530110648E+00  0.8725047780E+00  0.2101287924E-17 -0.7014321303E+00  0.9688066493E+15  0.1395462240E+01  0.2255639531E-17 -0.5612548661E+00
  0.4000000000E+00  0.1000000000E+01  0.3530110648E+00  0.8436454983E+00  0.5236750634E-17 -0.6183066850E+00  0.9688066493E+15  0.1246122959E+01  0.4893461237E-17 -0.6034144620E+00
  0.8000000000E+00  0.1000000000E+01  0.4000000000E+00  0.3058187720E+01 -0.6661084674E-17 -0.1791376826E+01  0.9688066493E+15  0.3321767332E+01 -0.6655774177E-17 -0.1759175565E+01
  0.7530110648E+00  0.1000000000E+01  0.4000000000E+00  0.2813518750E+01 -0.5585794682E-17 -0.1429206986E+01  0.9688066493E+15  0.3065311010E+01 -0.4278455363E-17 -0.1449396753E+01
  0.6570463033E+00  0.1000000000E+01  0.4000000000E+00  0.2295794678E+01  0.1881817584E-17 -0.1019958221E+01  0.9688066493E+15  0.2272833399E+01  0.2291547611E-17 -0.1078427602E+01
  0.5429536967E+00  0.1000000000E+01  0.4000000000E+00  0.1597882561E+01  0.1172707572E-16 -0.5675689515E+00  0.9688066493E+15  0.1851571325E+01  0.1740154212E-16 -0.5153363579E+00
  0.4469889352E+00  0.1000000000E+01  0.4000000000E+00  0.1019395948E+01  0.4855325040E-18 -0.6589915106E+00  0.9688066493E+15  0.1670257573E+01  0.1545826514E-16 -0.7219809555E+00
  0.4000000000E+00  0.1000000000E+01  0.4000000000E+00  0.8861119138E+00  0.6380543186E-17 -0.6716919469E+00  0.9688066493E+15  0.1305335639E+01  0.6439519082E-17 -0.7619253092E+00
ZONE I=6, J=6, K=1, F=POINT
  0.1200000000E+01  0.1000000000E+01  0.0000000000E+00 -0.6155689606E-01  0.1968782304E-19  0.3713373020E-01  0.9688066493E+15  0.4212550885E-01  0.5607122809E-19  0.3661432878E-01
  0.1153011065E+01  0.1000000000E+01  0.0000000000E+00 -0.3141144210E-01 -0.1679264042E-17 -0.9059624985E-02  0.9688066493E+15  0.7066291003E-01  0.3096958066E-17 -0.9426539681E-02
  0.1057046303E+01  0.1000000000E+01  0.0000000000E+00 -0.1748131639E-01 -0.4779872632E-18  0.6773418839E-02  0.9688066493E+15  0.7907871621E-01  0.2013486431E-17  0.5949288120E-02
  0.9429536967E+00  0.1000000000E+01  0.0000000000E+00 -0.1430994484E-01 -0.7555814667E-19 -0.7544987466E-02  0.9688066493E+15  0.7368416350E-01 -0.6602781426E-20 -0.8500758737E-02
  0.8469889352E+00  0.1000000000E+01  0.0000000000E+00 -0.2834446851E-02 -0.4093003571E-19  0.6291406038E-02  0.9688066493E+15  0.7678474347E-01 -0.3622596767E-19  0.5047626679E-02
  0.8000000000E+00  0.1000000000E+01  0.0000000000E+00 -0.3052969347E-01 -0.1401778538E-18 -0.9897349789E-02  0.9688066493E+15  0.4441204733E-01 -0.9549429450E-19 -0.1151814896E-01
  0.1200000000E+01  0.1000000000E+01  0.4698893521E-01  0.2175359198E+01 -0.3269624357E-16 -0.2737249432E+00  0.9688066493E+15  0.2425903750E+01 -0.4395664433E-16 -0.1113319473E+00
  0.1153011065E+01  0.1000000000E+01  0.4698893521E-01  0.1477271847E+01 -0.1897738551E-16 -0.1032099143E+00  0.9688066493E+15  0.1727544532E+01 -0.2704787479E-16  0.4793478063E-01
  0.1057046303E+01  0.1000000000E+01  0.4698893521E-01  0.1342530423E+01 -0.1397701544E-16 -0.7607524941E-01  0.9688066493E+15  0.1588832401E+01 -0.1081959745E-16  0.5521640877E-01
  0.9429536967E+00  0.1000000000E+01  0.4698893521E-01  0.7284391635E+00 -0.8530675558E-17  0.2824996142E-02  0.9688066493E+15  0.9646328484E+00 -0.1496945284E-16  0.1113037613E+00
  0.8469889352E+00  0.1000000000E+01  0.4698893521E-01  0.6232657713E+00 -0.1940579321E-16  0.6485847862E-01  0.9688066493E+15  0.8452466878E+00 -0.2935139992E-16  0.1530247620E+00
  0.8000000000E+00  0.1000000000E+01  0.4698893521E-01  0.2397420675E+00 -0.2006202977E-16  0.1742083238E+00  0.9688066493E+15  0.4531577618E+00 -0.2258954929E-16  0.2552472150E+00
  0.1200000000E+01  0.1000000000E+01  0.1429536967E+00  0.5404294752E+01 -0.5382395994E-16 -0.7777207112E+00  0.9688066493E+15  0.5684860533E+01 -0.6108832321E-16 -0.5256898934E+00
  0.1153011065E+01  0.1000000000E+01  0.1429536967E+00  0.3915543649E+01 -0.8453920900E-16 -0.9662342134E+00  0.9688066493E+15  0.4196027821E+01 -0.7031773019E-16 -0.7282376629E+00
  0.1057046303E+01  0.1000000000E+01  0.1429536967E+00  0.3502530093E+01 -0.3603393877E-16 -0.6955103591E+00  0.9688066493E+15  0.3769276871E+01 -0.3653684016E-16 -0.4854679897E+00
  0.9429536967E+00  0.1000000000E+01  0.1429536967E+00  0.2191798128E+01 -0.3144113221E-16 -0.7327180185E+00  0.9688066493E+15  0.2451182694E+01 -0.3143632659E-16 -0.5433684357E+00
  0.8469889352E+00  0.1000000000E+01  0.1429536967E+00  0.1865196322E+01 -0.4257625731E-16 -0.3241980391E+00  0.9688066493E+15  0.2114293497E+01 -0.4904494904E-16 -0.1600785053E+00
  0.8000000000E+00  0.1000000000E+01  0.1429536967E+00  0.1157144628E+01 -0.5788934499E-16 -0.2859001332E+00  0.9688066493E+15  0.1383504288E+01 -0.5152359439E-16 -0.1325591863E+00
  0.1200000000E+01  0.1000000000E+01  0.2570463033E+00  0.6048454930E+01 -0.1496763341E-16 -0.1909448781E+01  0.9688066493E+15  0.6344476228E+01 -0.1478841946E-16 -0.1661144125E+01
  0.1153011065E+01  0.1000000000E+01  0.2570463033E+00  0.5454920246E+01 -0.5053515523E-17 -0.2165835320E+01  0.9688066493E+15  0.5771018599E+01 -0.3539863866E-16 -0.1929226067E+01
  0.1057046303E+01  0.1000000000E+01  0.2570463033E+00  0.4550107812E+01 -0.3284053538E-16 -0.1755797610E+01  0.9688066493E+15  0.4852792089E+01 -0.3234791509E-16 -0.1558488725E+01
  0.9429536967E+00  0.1000000000E+01  0.2570463033E+00  0.3504004138E+01 -0.1151434381E-16 -0.1755632308E+01  0.9688066493E+15  0.3777623419E+01 -0.2623397008E-16 -0.1595492175E+01
  0.8469889352E+00  0.1000000000E+01  0.2570463033E+00  0.2888567320E+01 -0.1848250189E-16 -0.1098934864E+01  0.9688066493E+15  0.3145345265E+01 -0.7866192275E-17 -0.9276432191E+00
  0.8000000000E+00  0.1000000000E+01  0.2570463033E+00  0.2469483020E+01 -0.9953711768E-17 -0.1021709177E+01  0.9688066493E+15  0.2708047031E+01 -0.9601590828E-17 -0.8453846663E+00
  0.1200000000E+01  0.1000000000E+01  0.3530110648E+00  0.6623690929E+01  0.1561760194E-16 -0.3057608085E+01  0.9688066493E+15  0.6948397311E+01  0.1559670043E-16 -0.2804863413E+01
  0.1153011065E+01  0.1000000000E+01  0.3530110648E+00  0.5813005456E+01  0.5562865698E-17 -0.3015840086E+01  0.9688066493E+15  0.6158430137E+01  0.1132020745E-17 -0.2778874542E+01
  0.1057046303E+01  0.1000000000E+01  0.3530110648E+00  0.4970779423E+01 -0.1539665433E-16 -0.2656816445E+01  0.9688066493E+15  0.5330588010E+01 -0.1857852442E-16 -0.2466016911E+01
  0.9429536967E+00  0.1000000000E+01  0.3530110648E+00  0.3934729697E+01 -0.6451792453E-17 -0.2396305528E+01  0.9688066493E+15  0.4224402885E+01 -0.1718298676E-16 -0.2268628872E+01
  0.8469889352E+00  0.1000000000E+01  0.3530110648E+00  0.3390379021E+01 -0.1213476519E-16 -0.1720426213E+01  0.9688066493E+15  0.3620477726E+01 -0.6653827099E-17 -0.1597456490E+01
  0.8000000000E+00  0.1000000000E+01  0.3530110648E+00  0.2872659022E+01  0.2604667690E-17 -0.1503363026E+01  0.9688066493E+15  0.3125442596E+01  0.2183325141E-17 -0.1380169795E+01
  0.1200000000E+01  0.1000000000E+01  0.4000000000E+00  0.6457694666E+01  0.1540943377E-16 -0.3397346857E+01  0.9688066493E+15  0.6802127027E+01  0.1532693958E-16 -0.3166469402E+01
  0.1153011065E+01  0.1000000000E+01  0.4000000000E+00  0.6000469088E+01  0.2264542754E-17 -0.3556386774E+01  0.9688066493E+15  0.6362133819E+01  0.5790107110E-17 -0.3347650395E+01
  0.1057046303E+01  0.1000000000E+01  0.4000000000E+00  0.4996777391E+01 -0.1437763367E-16 -0.3122507465E+01  0.9688066493E+15  0.5380422641E+01 -0.1155460672E-16 -0.2944141427E+01
  0.9429536967E+00  0.1000000000E+01  0.4000000000E+00  0.4055745432E+01 -0.1148734523E-16 -0.2842395324E+01  0.9688066493E+15  0.4366563433E+01 -0.1778087556E-16 -0.2712241569E+01
  0.8469889352E+00  0.1000000000E+01  0.4000000000E+00  0.3382875496E+01 -0.1628356215E-16 -0.2020881514E+01  0.9688066493E+15  0.3624438633E+01 -0.1397919875E-16 -0.1961900686E+01
  0.8000000000E+00  0.1000000000E+01  0.4000000000E+00  0.3053730723E+01 -0.6568980764E-17 -0.1795028097E+01  0.9688066493E+15  0.3319149782E+01 -0.6599206674E-17 -0.1762021444E+01
ZONE I=6, J=6, K=1, F=POINT
  0.1600000000E+01  0.1000000000E+01  0.0000000000E+00  0.6745676663E-01 -0.1041510238E-17 -0.6713169072E-01  0.9688066493E+15  0.1869442714E+00 -0.1116095039E-17 -0.7152511892E-01
  0.1553011065E+01  0.1000000000E+01  0.0000000000E+00 -0.5014912018E-01  0.1721696333E-17  0.4594570148E-01  0.9688066493E+15  0.6756788699E-01 -0.3994419317E-17  0.4522702351E-01
  0.1457046303E+01  0.1000000000E+01  0.0000000000E+00 -0.5871220998E-01  0.1035428437E-17 -0.2110575188E-02  0.9688066493E+15  0.5440756916E-01 -0.1609690306E-17 -0.2462603523E-02
  0.1342953697E+01  0.1000000000E+01  0.0000000000E+00 -0.3627157032E-01 -0.1927847445E-17  0.3079521358E-01  0.9688066493E+15  0.7256659838E-01  0.4112456429E-17  0.3023626015E-01
  0.1246988935E+01  0.1000000000E+01  0.0000000000E+00 -0.4162462459E-01  0.1725700322E-18 -0.7396358378E-02  0.9688066493E+15  0.6346910467E-01  0.5861142650E-18 -0.7685003881E-02
  0.1200000000E+01  0.1000000000E+01  0.0000000000E+00  0.2798600041E-01  0.8083075523E-20  0.3715429902E-01  0.9688066493E+15  0.1315191353E+00  0.7089488549E-19  0.3664645503E-01
  0.1600000000E+01  0.1000000000E+01  0.4698893521E-01  0.2704085106E+01 -0.8267979015E-16  0.2706180049E+00  0.9688066493E+15  0.2929927138E+01 -0.8788834220E-16  0.4326097268E+00
  0.1553011065E+01  0.1000000000E+01  0.4698893521E-01  0.3277083468E+01 -0.5298557899E-16 -0.2574023044E+00  0.9688066493E+15  0.3488002395E+01 -0.4671209266E-16 -0.8437173491E-01
  0.1457046303E+01  0.1000000000E+01  0.4698893521E-01  0.2386244571E+01  0.1387553210E-17 -0.1433643515E+00  0.9688066493E+15  0.2612929897E+01 -0.5228801234E-17  0.6172678962E-01
  0.1342953697E+01  0.1000000000E+01  0.4698893521E-01  0.2454792518E+01  0.2477490377E-16 -0.1291426331E+00  0.9688066493E+15  0.2698046173E+01  0.2701391900E-16  0.5659251986E-01
  0.1246988935E+01  0.1000000000E+01  0.4698893521E-01  0.1911657867E+01 -0.1777735792E-16 -0.1057374047E+00  0.9688066493E+15  0.2153096063E+01 -0.7632316853E-17  0.6346728289E-01
  0.1200000000E+01  0.1000000000E+01  0.4698893521E-01  0.2273922658E+01 -0.3681475908E-16 -0.2794018867E+00  0.9688066493E+15  0.2522981245E+01 -0.4815523592E-16 -0.1166092068E+00
  0.1600000000E+01  0.1000000000E+01  0.1429536967E+00  0.6184791077E+01 -0.2916269380E-15 -0.1861169060E+01  0.9688066493E+15  0.6402020605E+01 -0.2783297382E-15 -0.1537941380E+01
  0.1553011065E+01  0.1000000000E+01  0.1429536967E+00  0.8060393499E+01 -0.1409894140E-15 -0.1009899132E+01  0.9688066493E+15  0.8249015122E+01 -0.1496015638E-15 -0.6881537121E+00
  0.1457046303E+01  0.1000000000E+01  0.1429536967E+00  0.6148604226E+01  0.8462811618E-17 -0.1001786661E+01  0.9688066493E+15  0.6382413703E+01  0.2313815298E-16 -0.6962804213E+00
  0.1342953697E+01  0.1000000000E+01  0.1429536967E+00  0.6211184994E+01  0.8440281706E-16 -0.3315379795E+00  0.9688066493E+15  0.6481534919E+01  0.9447277483E-16 -0.5546783662E-01
  0.1246988935E+01  0.1000000000E+01  0.1429536967E+00  0.4904075225E+01  0.4020408989E-16 -0.9139968720E+00  0.9688066493E+15  0.5157240313E+01  0.1984407569E-16 -0.6538080773E+00
  0.1200000000E+01  0.1000000000E+01  0.1429536967E+00  0.5570082466E+01 -0.5817656730E-16 -0.7723208589E+00  0.9688066493E+15  0.5840925540E+01 -0.6520463916E-16 -0.5209337744E+00
  0.1600000000E+01  0.1000000000E+01  0.2570463033E+00  0.1136240295E+02  0.8811546990E-16 -0.3537597034E+01  0.9688066493E+15  0.1159077773E+02  0.8871984427E-16 -0.3239111672E+01
  0.1553011065E+01  0.1000000000E+01  0.2570463033E+00  0.1046030521E+02  0.1064146969E-15 -0.2426950479E+01  0.9688066493E+15  0.1067463927E+02  0.1110733710E-15 -0.2122753101E+01
  0.1457046303E+01  0.1000000000E+01  0.2570463033E+00  0.9290789417E+01  0.1505113115E-15 -0.2308256414E+01  0.9688066493E+15  0.9555829157E+01  0.1655115280E-15 -0.2019988199E+01
  0.1342953697E+01  0.1000000000E+01  0.2570463033E+00  0.7799991116E+01  0.1006430762E-15 -0.1298888359E+01  0.9688066493E+15  0.8088843487E+01  0.1169438194E-15 -0.1026043039E+01
  0.1246988935E+01  0.1000000000E+01  0.2570463033E+00  0.6585613185E+01  0.1495249994E-16 -0.2127393010E+01  0.9688066493E+15  0.6857305722E+01  0.3195266760E-16 -0.1869684619E+01
  0.1200000000E+01  0.1000000000E+01  0.2570463033E+00  0.6088656680E+01 -0.1491055397E-16 -0.1899496849E+01  0.9688066493E+15  0.6384180816E+01 -0.1489116848E-16 -0.1654183280E+01
  0.1600000000E+01  0.1000000000E+01  0.3530110648E+00  0.1007756581E+02  0.1890368529E-15 -0.3735043823E+01  0.9688066493E+15  0.1028223917E+02  0.1882488767E-15 -0.3429965667E+01
  0.1553011065E+01  0.1000000000E+01  0.3530110648E+00  0.1044554015E+02  0.1849762879E-15 -0.3663372124E+01  0.9688066493E+15  0.1064607358E+02  0.1864358120E-15 -0.3349607649E+01
  0.1457046303E+01  0.1000000000E+01  0.3530110648E+00  0.9443513779E+01  0.1539760423E-15 -0.3363175189E+01  0.9688066493E+15  0.9710697131E+01  0.1654813494E-15 -0.3033730630E+01
  0.1342953697E+01  0.1000000000E+01  0.3530110648E+00  0.8290441040E+01  0.1141572847E-15 -0.2766715045E+01  0.9688066493E+15  0.8600072930E+01  0.1210553392E-15 -0.2455347659E+01
  0.1246988935E+01  0.1000000000E+01  0.3530110648E+00  0.6889500576E+01  0.5421975823E-16 -0.3080857173E+01  0.9688066493E+15  0.7190291116E+01  0.4250831267E-16 -0.2807111668E+01
  0.1200000000E+01  0.1000000000E+01  0.3530110648E+00  0.6701377976E+01  0.1566012319E-16 -0.3057821234E+01  0.9688066493E+15  0.7022464552E+01  0.1569394765E-16 -0.2804874514E+01
  0.1600000000E+01  0.1000000000E+01  0.4000000000E+00  0.1034550171E+02  0.1864505221E-15 -0.4458354133E+01  0.9688066493E+15  0.1055200294E+02  0.1863581569E-15 -0.4066404224E+01
  0.1553011065E+01  0.1000000000E+01  0.4000000000E+00  0.9881173555E+01  0.2011435767E-15 -0.3691795469E+01  0.9688066493E+15  0.1008241207E+02  0.1979310917E-15 -0.3305703262E+01
  0.1457046303E+01  0.1000000000E+01  0.4000000000E+00  0.9462955352E+01  0.1578919371E-15 -0.3900661629E+01  0.9688066493E+15  0.9734491607E+01  0.1583711176E-15 -0.3550832125E+01
  0.1342953697E+01  0.1000000000E+01  0.4000000000E+00  0.8150159848E+01  0.1017973109E-15 -0.3191715481E+01  0.9688066493E+15  0.8478686177E+01  0.1233034173E-15 -0.2882648055E+01
  0.1246988935E+01  0.1000000000E+01  0.4000000000E+00  0.7110028581E+01  0.4059970449E-16 -0.3669808358E+01  0.9688066493E+15  0.7435053258E+01  0.3467352920E-16 -0.3411098439E+01
  0.1200000000E+01  0.1000000000E+01  0.4000000000E+00  0.6429810934E+01  0.1550896425E-16 -0.3384768455E+01  0.9688066493E+15  0.6777384692E+01  0.1552483375E-16 -0.3156929380E+01
ZONE I=6, J=6, K=1, F=POINT
  0.2000000000E+01  0.1000000000E+01  0.0000000000E+00  0.2389667675E+01  0.5880943513E-19  0.2122404521E+02  0.9688066492E+15  0.2429508221E+01  0.1021053812E-18  0.2215492487E+02
  0.1953011065E+01  0.1000000000E+01  0.0000000000E+00  0.1205813723E+01 -0.3568578439E-16 -0.1538780813E+00  0.9688066493E+15  0.1327137633E+01 -0.3697330445E-16 -0.1534712886E+00
  0.1857046303E+01  0.1000000000E+01  0.0000000000E+00 -0.4031857928E+00 -0.2412875530E-16  0.1570307930E+00  0.9688066493E+15 -0.2612087463E+00 -0.1653420117E-16  0.1530538145E+00
  0.1742953697E+01  0.1000000000E+01  0.0000000000E+00  0.5660846865E-01 -0.7994851610E-19 -0.3762928142E-01  0.9688066493E+15  0.1868114182E+00  0.2000281057E-18 -0.3593935832E-01
  0.1646988935E+01  0.1000000000E+01  0.0000000000E+00 -0.2060658714E+00  0.4474392746E-18  0.6252427136E-01  0.9688066493E+15 -0.6336575633E-01  0.5761754902E-20  0.6012898085E-01
  0.1600000000E+01  0.1000000000E+01  0.0000000000E+00  0.2809150326E-01 -0.1104035535E-17 -0.7908145602E-01  0.9688066493E+15  0.1442735493E+00 -0.1197959550E-17 -0.8225437736E-01
  0.2000000000E+01  0.1000000000E+01  0.4698893521E-01 -0.3080403749E-01  0.7143008153E-18  0.4839433183E+02  0.9688066493E+15 -0.5886757820E-01  0.6417491527E-18  0.4869174420E+02
  0.1953011065E+01  0.1000000000E+01  0.4698893521E-01  0.1061556893E+02  0.1312794281E-15  0.1139777468E+01  0.9688066493E+15  0.1078685728E+02  0.1316707043E-15  0.1338999810E+01
  0.1857046303E+01  0.1000000000E+01  0.4698893521E-01  0.1118557181E+02  0.2557719510E-15 -0.2164666335E+01  0.9688066493E+15  0.1140810664E+02  0.2718870527E-15 -0.1974984845E+01
  0.1742953697E+01  0.1000000000E+01  0.4698893521E-01  0.5304873413E+01 -0.4503938340E-16 -0.8025717073E+00  0.9688066493E+15  0.5536248202E+01 -0.4550779398E-16 -0.5807836034E+00
  0.1646988935E+01  0.1000000000E+01  0.4698893521E-01  0.4026106796E+01 -0.1028073794E-15 -0.6333089060E+00  0.9688066493E+15  0.4308318419E+01 -0.1181117699E-15 -0.4471489302E+00
  0.1600000000E+01  0.1000000000E+01  0.4698893521E-01  0.2541644721E+01 -0.7994827480E-16  0.2560728266E+00  0.9688066493E+15  0.2775739470E+01 -0.8491992203E-16  0.4128954622E+00
  0.2000000000E+01  0.1000000000E+01  0.1429536967E+00 -0.2769730575E+00  0.3103154761E-17  0.5040178186E+02  0.9688066493E+15 -0.2553565540E+00  0.3098094203E-17  0.5049350679E+02
  0.1953011065E+01  0.1000000000E+01  0.1429536967E+00  0.2410721745E+01 -0.5439896432E-15  0.1593654835E+02  0.9688066493E+15  0.2594325765E+01 -0.5259904724E-15  0.1622311821E+02
  0.1857046303E+01  0.1000000000E+01  0.1429536967E+00  0.1216660377E+02 -0.2420711752E-15 -0.4062569148E+01  0.9688066493E+15  0.1234589441E+02 -0.2531277692E-15 -0.3800294688E+01
  0.1742953697E+01  0.1000000000E+01  0.1429536967E+00  0.9439938783E+01 -0.9082610247E-16 -0.4316194349E+01  0.9688066493E+15  0.9649129766E+01 -0.7054942389E-16 -0.4010178751E+01
  0.1646988935E+01  0.1000000000E+01  0.1429536967E+00  0.8882398368E+01 -0.1717026038E-15 -0.2161897601E+01  0.9688066493E+15  0.9207515704E+01 -0.1714028908E-15 -0.1835343123E+01
  0.1600000000E+01  0.1000000000E+01  0.1429536967E+00  0.5814544067E+01 -0.3088292354E-15 -0.1861400818E+01  0.9688066493E+15  0.6070845172E+01 -0.2956853508E-15 -0.1542654780E+01
  0.2000000000E+01  0.1000000000E+01  0.2570463033E+00  0.1855968506E-01  0.1065460922E-17  0.4979032007E+02  0.9688066493E+15  0.1947689380E-01  0.1122729316E-17  0.4994294327E+02