TITLE = "Generated from ../MESH/Convergence_0000000000.hmesh and Convergence_0000009100.hsol"
VARIABLES = "x","y","z","veloT_x","veloT_y","veloT_z","slr_4","velo_x","velo_y","velo_z"
ZONE I=6, J=6, K=1, F=POINT
  0.4000000000E+00  0.1000000000E+01  0.0000000000E+00 -0.8527074858E-01 -0.4101711183E-19  0.1032150254E-01  0.3068832955E+16  0.6502723030E-01  0.1575171611E-19  0.1063644667E-01
  0.3530110648E+00  0.1000000000E+01  0.0000000000E+00 -0.6900254499E-01 -0.1382315235E-19  0.2144953951E-02  0.3068832955E+16  0.8504747144E-01 -0.3930934476E-19  0.5078827564E-03
  0.2570463033E+00  0.1000000000E+01  0.0000000000E+00 -0.4866785708E-01 -0.8459454106E-20  0.5389796615E-02  0.3068832955E+16  0.7268895121E-01 -0.2100069761E-19  0.1626046283E-02
  0.1429536967E+00  0.1000000000E+01  0.0000000000E+00 -0.4645769817E-01  0.9623851083E-21 -0.2841605461E-02  0.3068832955E+16  0.6523001242E-01 -0.5141849016E-20 -0.2254406831E-02
  0.4698893521E-01  0.1000000000E+01  0.0000000000E+00 -0.3774760147E-01 -0.1510983595E-19  0.1159879656E-01  0.3068832955E+16  0.4856633398E-01 -0.8542804324E-20  0.1548348350E-03
  0.0000000000E+00  0.1000000000E+01  0.0000000000E+00 -0.1519527453E-01  0.1613825906E-21  0.9176604491E-02  0.3068832955E+16 -0.5324458659E-02  0.4865380104E-22 -0.8929570164E-03
  0.4000000000E+00  0.1000000000E+01  0.4698893521E-01 -0.1120556945E+00  0.5684804423E-17  0.1428975610E+00  0.3068832955E+16  0.2602393533E+00  0.3556841141E-17  0.5857862602E+00
  0.3530110648E+00  0.1000000000E+01  0.4698893521E-01 -0.2250992652E+00  0.6686962722E-17  0.2206555072E+00  0.3068832955E+16  0.1413686068E+00  0.2377353186E-17  0.5645256073E+00
  0.2570463033E+00  0.1000000000E+01  0.4698893521E-01 -0.1725101534E+00  0.2095710714E-17  0.2159734661E+00  0.3068832955E+16  0.1223337001E+00  0.2003411821E-17  0.4149388761E+00
  0.1429536967E+00  0.1000000000E+01  0.4698893521E-01 -0.2557387120E+00 -0.9288689867E-19  0.2533811292E+00  0.3068832955E+16  0.2812340058E-01  0.6896634797E-18  0.2583959757E+00
  0.4698893521E-01  0.1000000000E+01  0.4698893521E-01 -0.1918197948E+00 -0.1909904853E-18  0.2232501333E+00  0.3068832955E+16  0.1067280315E-01  0.4445380089E-19  0.7818428930E-01
  0.0000000000E+00  0.1000000000E+01  0.4698893521E-01 -0.2680803998E-01  0.4093765695E-20  0.4332685404E-01  0.3068832955E+16 -0.1644147625E-01  0.5709491609E-21 -0.4121626386E-01
  0.4000000000E+00  0.1000000000E+01  0.1429536967E+00  0.1561442182E+00  0.3793875934E-17 -0.1853398224E-02  0.3068832955E+16  0.7308228837E+00  0.1179970909E-16  0.6537962362E+00
  0.3530110648E+00  0.1000000000E+01  0.1429536967E+00  0.9581829880E-02  0.6091813598E-17 -0.2579684296E-01  0.3068832955E+16  0.5627708741E+00  0.1790320273E-17  0.5574811035E+00
  0.2570463033E+00  0.1000000000E+01  0.1429536967E+00 -0.6780726741E-01  0.3256190423E-17  0.8076459959E-01  0.3068832955E+16  0.4311403166E+00  0.3631003394E-17  0.4608092789E+00
  0.1429536967E+00  0.1000000000E+01  0.1429536967E+00 -0.2389568575E+00  0.1496475526E-17  0.1615334444E+00  0.3068832955E+16  0.2861546930E+00  0.1551246691E-17  0.2432295791E+00
  0.4698893521E-01  0.1000000000E+01  0.1429536967E+00 -0.1116141438E+00 -0.7828755406E-18  0.2354326634E+00  0.3068832955E+16  0.2327385805E+00 -0.8350292300E-19  0.7756493161E-01
  0.0000000000E+00  0.1000000000E+01  0.1429536967E+00 -0.1745339421E-01  0.1567076918E-19  0.3607677557E-01  0.3068832955E+16 -0.2087853671E-01 -0.1227597297E-20 -0.5914104887E-01
  0.4000000000E+00  0.1000000000E+01  0.2570463033E+00  0.1631194529E+00  0.4536856445E-17 -0.4930265448E+00  0.3068832955E+16  0.9248690924E+00  0.5200629989E-17  0.8122312984E-01
  0.3530110648E+00  0.1000000000E+01  0.2570463033E+00  0.1906797613E+00  0.6301584596E-17 -0.3748838299E+00  0.3068832955E+16  0.9380128083E+00  0.1289990617E-16  0.8311126497E-01
  0.2570463033E+00  0.1000000000E+01  0.2570463033E+00  0.2233462730E-02  0.2843613578E-17 -0.1433714791E+00  0.3068832955E+16  0.7364906574E+00  0.2786180008E-17  0.1634679898E+00
  0.1429536967E+00  0.1000000000E+01  0.2570463033E+00 -0.1697096222E+00  0.1962594234E-17 -0.8444496511E-01  0.3068832955E+16  0.6549756723E+00  0.1891121930E-17 -0.1876759971E-01
  0.4698893521E-01  0.1000000000E+01  0.2570463033E+00 -0.2350566648E-01  0.3227210881E-17  0.1032600163E+00  0.3068832955E+16  0.5148624776E+00  0.1392323012E-17 -0.3684574239E-01
  0.0000000000E+00  0.1000000000E+01  0.2570463033E+00 -0.1240912383E-01 -0.1929627193E-19  0.8068463849E-02  0.3068832955E+16 -0.1368062444E-01  0.3963704319E-20 -0.5971222862E-01
  0.4000000000E+00  0.1000000000E+01  0.3530110648E+00 -0.2412401985E+00  0.4886733342E-17 -0.5480779033E+00  0.3068832955E+16  0.9968626246E+00  0.3868136531E-17  0.3097036103E-01
  0.3530110648E+00  0.1000000000E+01  0.3530110648E+00  0.1150925050E+00  0.4206131527E-17 -0.4224098976E+00  0.3068832955E+16  0.1076525466E+01  0.4132353368E-17 -0.1608417864E-01
  0.2570463033E+00  0.1000000000E+01  0.3530110648E+00  0.9132762274E-01 -0.3752793082E-17 -0.2503920087E+00  0.3068832955E+16  0.9697656857E+00 -0.7383987738E-17  0.4981198577E-02
  0.1429536967E+00  0.1000000000E+01  0.3530110648E+00 -0.7466542982E-01 -0.3863502710E-18 -0.2023901237E+00  0.3068832955E+16  0.9792244846E+00 -0.4315599246E-18 -0.1868514957E+00
  0.4698893521E-01  0.1000000000E+01  0.3530110648E+00  0.8424046466E-01 -0.6183369445E-18  0.1003214441E-01  0.3068832955E+16  0.7388045639E+00  0.8821619054E-18 -0.1559584783E+00
  0.0000000000E+00  0.1000000000E+01  0.3530110648E+00 -0.1123907084E-01  0.1532907800E-19 -0.1585439472E-01  0.3068832955E+16 -0.1462403067E-01  0.2221370352E-19 -0.7239041083E-01
  0.4000000000E+00  0.1000000000E+01  0.4000000000E+00 -0.1502172290E+00  0.4055337064E-17 -0.3779594986E+00  0.3068832955E+16  0.1265015354E+01  0.4219093995E-17  0.1856515389E+00
  0.3530110648E+00  0.1000000000E+01  0.4000000000E+00  0.2607860371E+00  0.4232488083E-17 -0.5078244250E+00  0.3068832955E+16  0.1315424502E+01  0.2313341070E-17  0.4923797214E-02
  0.2570463033E+00  0.1000000000E+01  0.4000000000E+00  0.1712033887E+00  0.2114158552E-17 -0.4641290892E+00  0.3068832955E+16  0.1134867059E+01  0.4508295018E-17 -0.1244203536E+00
  0.1429536967E+00  0.1000000000E+01  0.4000000000E+00  0.6258740574E-02  0.3980148163E-17 -0.3670084046E+00  0.3068832955E+16  0.1172404652E+01  0.4086931576E-17 -0.2973872659E+00
  0.4698893521E-01  0.1000000000E+01  0.4000000000E+00  0.1461620924E+00  0.2922862182E-18 -0.1119855377E+00  0.3068832955E+16  0.8541071328E+00  0.7320819018E-18 -0.2297627409E+00
  0.0000000000E+00  0.1000000000E+01  0.4000000000E+00 -0.1852849155E-02  0.1941692748E-19 -0.3857672439E-01  0.3068832955E+16 -0.5140810767E-02  0.2736102450E-20 -0.6846530434E-01
ZONE I=6, J=6, K=1, F=POINT
  0.8000000000E+00  0.1000000000E+01  0.0000000000E+00 -0.1559526768E+00 -0.2445389698E-18 -0.7093329557E-02  0.3068832955E+16  0.1345220991E+00 -0.1874071436E-18 -0.8292822690E-02
  0.7530110648E+00  0.1000000000E+01  0.0000000000E+00 -0.1573036767E+00 -0.3797368124E-17  0.1182886898E-01  0.3068832955E+16  0.1221231588E+00  0.2516508027E-17  0.8502702908E-02
  0.6570463033E+00  0.1000000000E+01  0.0000000000E+00 -0.1325769810E+00 -0.1642967657E-17  0.7889886050E-02  0.3068832955E+16  0.1161663141E+00  0.1605025409E-17  0.1476868019E-02
  0.5429536967E+00  0.1000000000E+01  0.0000000000E+00 -0.1048496886E+00 -0.2706250097E-17  0.1466737525E-01  0.3068832955E+16  0.9910451972E-01  0.2624320229E-17  0.6470782635E-02
  0.4469889352E+00  0.1000000000E+01  0.0000000000E+00 -0.8795665994E-01 -0.2694493052E-17  0.7629646091E-02  0.3068832955E+16  0.7929016289E-01  0.2437009431E-17  0.2260811012E-02
  0.4000000000E+00  0.1000000000E+01  0.0000000000E+00 -0.5966920597E-01 -0.3601331458E-19  0.9953291193E-02  0.3068832955E+16  0.9222769312E-01  0.1761439695E-19  0.1026893763E-01
  0.8000000000E+00  0.1000000000E+01  0.4698893521E-01 -0.2486424651E+00 -0.1425311898E-16 -0.2879085615E-01  0.3068832955E+16  0.2585290359E+00 -0.1989884649E-16  0.7015986977E+00
  0.7530110648E+00  0.1000000000E+01  0.4698893521E-01 -0.1081310431E-01  0.1598063438E-16 -0.7547893123E-01  0.3068832955E+16  0.4828877791E+00 -0.1323665800E-16  0.6643953600E+00
  0.6570463033E+00  0.1000000000E+01  0.4698893521E-01 -0.1657339411E+00 -0.1046522477E-16 -0.9016941785E-01  0.3068832955E+16  0.2848415822E+00 -0.3775023057E-17  0.6897618976E+00
  0.5429536967E+00  0.1000000000E+01  0.4698893521E-01 -0.1194688628E+00 -0.3744006636E-17 -0.7171829633E-01  0.3068832955E+16  0.2986335822E+00  0.3842239168E-17  0.6829991268E+00
  0.4469889352E+00  0.1000000000E+01  0.4698893521E-01 -0.2271737877E+00  0.7195123932E-17  0.9653280942E-01  0.3068832955E+16  0.1699220601E+00  0.4272943687E-17  0.6655532064E+00
  0.4000000000E+00  0.1000000000E+01  0.4698893521E-01 -0.6980012140E-01  0.5490168276E-17  0.1421507450E+00  0.3068832955E+16  0.3017728958E+00  0.3338665780E-17  0.5850548519E+00
  0.8000000000E+00  0.1000000000E+01  0.1429536967E+00  0.6977680342E+00 -0.7378620455E-16 -0.6975771406E+00  0.3068832955E+16  0.1181180142E+01 -0.5986693898E-16  0.2959841961E+00
  0.7530110648E+00  0.1000000000E+01  0.1429536967E+00  0.1035804510E+01 -0.2522057172E-16 -0.5002130254E+00  0.3068832955E+16  0.1527873913E+01 -0.3518568348E-16  0.4913772353E+00
  0.6570463033E+00  0.1000000000E+01  0.1429536967E+00  0.5868163324E+00  0.2383965306E-16 -0.3569489042E+00  0.3068832955E+16  0.1084309468E+01  0.4116794462E-17  0.5434245713E+00
  0.5429536967E+00  0.1000000000E+01  0.1429536967E+00  0.4172356981E+00 -0.6460506031E-17 -0.5867497286E-01  0.3068832955E+16  0.9431614760E+00  0.9118741741E-17  0.6964240561E+00
  0.4469889352E+00  0.1000000000E+01  0.1429536967E+00  0.5780331993E-01  0.1404665932E-16 -0.5292228029E-01  0.3068832955E+16  0.6254482625E+00  0.6621168044E-17  0.6412616600E+00
  0.4000000000E+00  0.1000000000E+01  0.1429536967E+00  0.2097993227E+00  0.4363397449E-17 -0.1476477660E-02  0.3068832955E+16  0.7852958942E+00  0.1245835264E-16  0.6542646165E+00
  0.8000000000E+00  0.1000000000E+01  0.2570463033E+00  0.1951491811E+01 -0.1302346488E-16 -0.1450089943E+01  0.3068832955E+16  0.2437190062E+01 -0.1239555840E-16 -0.4551044706E+00
  0.7530110648E+00  0.1000000000E+01  0.2570463033E+00  0.1823855662E+01 -0.6846644937E-17 -0.1177837295E+01  0.3068832955E+16  0.2375768278E+01  0.4192314371E-17 -0.2068037095E+00
  0.6570463033E+00  0.1000000000E+01  0.2570463033E+00  0.1368274159E+01  0.1619717633E-16 -0.1245415088E+01  0.3068832955E+16  0.1960297930E+01 -0.3976994786E-18 -0.2455871036E+00
  0.5429536967E+00  0.1000000000E+01  0.2570463033E+00  0.7498188128E+00 -0.6725496412E-17 -0.1107681795E+01  0.3068832955E+16  0.1380147989E+01  0.3639920738E-17 -0.8115059400E-01
  0.4469889352E+00  0.1000000000E+01  0.2570463033E+00  0.1668570029E+00  0.3254663644E-17 -0.8130860483E+00  0.3068832955E+16  0.8819592167E+00  0.1231992424E-16 -0.5796117337E-01
  0.4000000000E+00  0.1000000000E+01  0.2570463033E+00  0.1963988811E+00  0.4459013316E-17 -0.4925118998E+00  0.3068832955E+16  0.9582353985E+00  0.5213603706E-17  0.8183980780E-01
  0.8000000000E+00  0.1000000000E+01  0.3530110648E+00  0.2334148305E+01  0.7076637015E-18 -0.1729945380E+01  0.3068832955E+16  0.2836487701E+01 -0.6342250588E-18 -0.5509796129E+00
  0.7530110648E+00  0.1000000000E+01  0.3530110648E+00  0.2345447651E+01 -0.3945480461E-16 -0.1442864503E+01  0.3068832955E+16  0.2916314073E+01 -0.6812498845E-17 -0.2849683285E+00
  0.6570463033E+00  0.1000000000E+01  0.3530110648E+00  0.2188295496E+01  0.5991024629E-17 -0.1474164065E+01  0.3068832955E+16  0.2444523516E+01 -0.2363737176E-16 -0.1186288969E-01
  0.5429536967E+00  0.1000000000E+01  0.3530110648E+00  0.9310679538E+00  0.5340328921E-16 -0.1518379846E+01  0.3068832955E+16  0.1724791131E+01 -0.1179263130E-16  0.3750339913E+00
  0.4469889352E+00  0.1000000000E+01  0.3530110648E+00 -0.4596254021E+00 -0.8927147299E-18 -0.9539758405E+00  0.3068832955E+16  0.1067336498E+01 -0.6266224774E-17  0.1069760554E+00
  0.4000000000E+00  0.1000000000E+01  0.3530110648E+00 -0.2026729421E+00  0.5077094969E-17 -0.5491308533E+00  0.3068832955E+16  0.1031262507E+01  0.4008617192E-17  0.3110032791E-01
  0.8000000000E+00  0.1000000000E+01  0.4000000000E+00  0.2438467684E+01 -0.1103415984E-16 -0.1792073716E+01  0.3068832955E+16  0.2872178028E+01 -0.1091051919E-16 -0.7243031655E+00
  0.7530110648E+00  0.1000000000E+01  0.4000000000E+00  0.2263032507E+01 -0.1395460054E-16 -0.1319568000E+01  0.3068832955E+16  0.2862803251E+01 -0.1455044903E-16 -0.2647980612E+00
  0.6570463033E+00  0.1000000000E+01  0.4000000000E+00  0.2407304499E+01 -0.5733952666E-18 -0.7258916554E+00  0.3068832955E+16  0.2341804431E+01  0.7696285261E-17  0.5994657092E+00
  0.5429536967E+00  0.1000000000E+01  0.4000000000E+00  0.9832540193E+00  0.4437894646E-18 -0.4432303776E+00  0.3068832955E+16  0.1872903534E+01  0.3737750758E-16  0.1455566937E+01
  0.4469889352E+00  0.1000000000E+01  0.4000000000E+00 -0.5713498996E+00 -0.4131675393E-16 -0.3804621746E+00  0.3068832955E+16  0.1592210925E+01  0.1790308597E-17  0.6028727251E+00
  0.4000000000E+00  0.1000000000E+01  0.4000000000E+00 -0.1330319200E+00  0.4311471313E-17 -0.3790602058E+00  0.3068832955E+16  0.1276337361E+01  0.4380969932E-17  0.1867726085E+00
ZONE I=6, J=6, K=1, F=POINT
  0.1200000000E+01  0.1000000000E+01  0.0000000000E+00 -0.3130333966E+00 -0.7225182416E-19  0.3977639972E-01  0.3068832955E+16  0.2716412172E-01 -0.2579677465E-19  0.4154052325E-01
  0.1153011065E+01  0.1000000000E+01  0.0000000000E+00 -0.2762224458E+00 -0.1322596139E-16 -0.6949102326E-02  0.3068832955E+16  0.6450632683E-01  0.2136817248E-17 -0.6619356693E-02
  0.1057046303E+01  0.1000000000E+01  0.0000000000E+00 -0.2463620754E+00 -0.6386510864E-17  0.9639738379E-02  0.3068832955E+16  0.8876031470E-01  0.2283500805E-17  0.8504821691E-02
  0.9429536967E+00  0.1000000000E+01  0.0000000000E+00 -0.2193088831E+00 -0.2733353249E-18 -0.4265195764E-02  0.3068832955E+16  0.1009497651E+00 -0.1870579928E-18 -0.5996947844E-02
  0.8469889352E+00  0.1000000000E+01  0.0000000000E+00 -0.1851183197E+00 -0.6880256648E-19  0.1032734856E-01  0.3068832955E+16  0.1169146248E+00 -0.9381837927E-19  0.7841325801E-02
  0.8000000000E+00  0.1000000000E+01  0.0000000000E+00 -0.2018660204E+00 -0.2747497176E-18 -0.6560996866E-02  0.3068832955E+16  0.8877651048E-01 -0.1987083309E-18 -0.7755087244E-02
  0.1200000000E+01  0.1000000000E+01  0.4698893521E-01  0.1510316417E+01 -0.1971603608E-17 -0.7247050145E+00  0.3068832955E+16  0.1955094074E+01 -0.2249387447E-16 -0.2293267166E+00
  0.1153011065E+01  0.1000000000E+01  0.4698893521E-01  0.8136007139E+00  0.3025679361E-17 -0.5233576060E+00  0.3068832955E+16  0.1257730610E+01 -0.1184548682E-16  0.4047056866E-02
  0.1057046303E+01  0.1000000000E+01  0.4698893521E-01  0.6972379000E+00 -0.2322574373E-16 -0.4369277418E+00  0.3068832955E+16  0.1172206302E+01 -0.1653266940E-16  0.1799497582E+00
  0.9429536967E+00  0.1000000000E+01  0.4698893521E-01  0.1141712365E+00  0.8732901052E-17 -0.2899038975E+00  0.3068832955E+16  0.6150620289E+00 -0.4710648256E-17  0.3908225237E+00
  0.8469889352E+00  0.1000000000E+01  0.4698893521E-01  0.4693641975E-01  0.7770567148E-17 -0.1623466355E+00  0.3068832955E+16  0.5480956808E+00 -0.1520082503E-16  0.5579375210E+00
  0.8000000000E+00  0.1000000000E+01  0.4698893521E-01 -0.3096182873E+00 -0.1335343281E-16 -0.2662037219E-01  0.3068832955E+16  0.1970944586E+00 -0.1908394872E-16  0.7036253189E+00
  0.1200000000E+01  0.1000000000E+01  0.1429536967E+00  0.4760289459E+01 -0.3593055234E-16 -0.1479502489E+01  0.3068832955E+16  0.5150659472E+01 -0.4629785387E-16 -0.7627153097E+00
  0.1153011065E+01  0.1000000000E+01  0.1429536967E+00  0.3252782404E+01 -0.1262306536E-15 -0.1637114426E+01  0.3068832955E+16  0.3603108274E+01 -0.1109364411E-15 -0.8833346476E+00
  0.1057046303E+01  0.1000000000E+01  0.1429536967E+00  0.2872757649E+01 -0.3636316518E-16 -0.1291449804E+01  0.3068832955E+16  0.3243834739E+01 -0.3681206728E-16 -0.4464498186E+00
  0.9429536967E+00  0.1000000000E+01  0.1429536967E+00  0.1579400650E+01 -0.3267755249E-16 -0.1262215246E+01  0.3068832955E+16  0.2020666865E+01 -0.3218655457E-16 -0.3028011419E+00
  0.8469889352E+00  0.1000000000E+01  0.1429536967E+00  0.1267520266E+01 -0.2552795218E-16 -0.7746132116E+00  0.3068832955E+16  0.1748440218E+01 -0.4140941676E-16  0.2156910639E+00
  0.8000000000E+00  0.1000000000E+01  0.1429536967E+00  0.6135279066E+00 -0.7647941568E-16 -0.6989527761E+00  0.3068832955E+16  0.1103309631E+01 -0.6230620841E-16  0.2944398931E+00
  0.1200000000E+01  0.1000000000E+01  0.2570463033E+00  0.5439527599E+01 -0.2329936781E-16 -0.2554602920E+01  0.3068832955E+16  0.5722490316E+01 -0.2258850275E-16 -0.1824039042E+01
  0.1153011065E+01  0.1000000000E+01  0.2570463033E+00  0.4778625297E+01  0.7430122409E-16 -0.2795434667E+01  0.3068832955E+16  0.5055439247E+01  0.5487341642E-16 -0.2028822533E+01
  0.1057046303E+01  0.1000000000E+01  0.2570463033E+00  0.3883509038E+01 -0.3793132422E-16 -0.2298680505E+01  0.3068832955E+16  0.4167073687E+01 -0.3739956819E-16 -0.1483119802E+01
  0.9429536967E+00  0.1000000000E+01  0.2570463033E+00  0.2892855310E+01  0.2788491782E-16 -0.2182605555E+01  0.3068832955E+16  0.3246220466E+01  0.8436287225E-17 -0.1304081649E+01
  0.8469889352E+00  0.1000000000E+01  0.2570463033E+00  0.2297146579E+01 -0.4916185030E-16 -0.1531806800E+01  0.3068832955E+16  0.2745168734E+01 -0.2163743789E-16 -0.5567789851E+00
  0.8000000000E+00  0.1000000000E+01  0.2570463033E+00  0.1912745987E+01 -0.1253481966E-16 -0.1452498581E+01  0.3068832955E+16  0.2400766547E+01 -0.1187836709E-16 -0.4572082856E+00
  0.1200000000E+01  0.1000000000E+01  0.3530110648E+00  0.6014413590E+01  0.5396285193E-17 -0.3675820585E+01  0.3068832955E+16  0.6235378986E+01  0.5764662014E-17 -0.2873203212E+01
  0.1153011065E+01  0.1000000000E+01  0.3530110648E+00  0.5123146837E+01  0.8509833085E-17 -0.3609041778E+01  0.3068832955E+16  0.5313537985E+01  0.6359634159E-17 -0.2769203296E+01
  0.1057046303E+01  0.1000000000E+01  0.3530110648E+00  0.4187879994E+01 -0.1519155799E-16 -0.3147493634E+01  0.3068832955E+16  0.4449402629E+01 -0.2844655646E-16 -0.2245972565E+01
  0.9429536967E+00  0.1000000000E+01  0.3530110648E+00  0.3284312371E+01  0.1917327612E-16 -0.2697374694E+01  0.3068832955E+16  0.3544996855E+01  0.2171621350E-17 -0.1742011455E+01
  0.8469889352E+00  0.1000000000E+01  0.3530110648E+00  0.2865117454E+01 -0.3429754033E-16 -0.1966165533E+01  0.3068832955E+16  0.3169791029E+01 -0.3525520698E-16 -0.8515319417E+00
  0.8000000000E+00  0.1000000000E+01  0.3530110648E+00  0.2284489691E+01  0.1023361868E-17 -0.1730331371E+01  0.3068832955E+16  0.2786269178E+01 -0.1352096520E-18 -0.5512107507E+00
  0.1200000000E+01  0.1000000000E+01  0.4000000000E+00  0.5818553535E+01  0.3672402541E-17 -0.3968391633E+01  0.3068832955E+16  0.6027441227E+01  0.4001050560E-17 -0.3256914584E+01
  0.1153011065E+01  0.1000000000E+01  0.4000000000E+00  0.5283176344E+01 -0.1906815018E-16 -0.4084725652E+01  0.3068832955E+16  0.5442677243E+01 -0.2533420809E-16 -0.3369318938E+01
  0.1057046303E+01  0.1000000000E+01  0.4000000000E+00  0.4158736965E+01 -0.3337964296E-16 -0.3592736879E+01  0.3068832955E+16  0.4393642448E+01 -0.3356880327E-16 -0.2822799486E+01
  0.9429536967E+00  0.1000000000E+01  0.4000000000E+00  0.3339072092E+01  0.7452042556E-18 -0.3154907604E+01  0.3068832955E+16  0.3550414690E+01 -0.9142148029E-18 -0.2260673050E+01
  0.8469889352E+00  0.1000000000E+01  0.4000000000E+00  0.2815154574E+01 -0.2870306448E-16 -0.2123503099E+01  0.3068832955E+16  0.3041342486E+01 -0.2785682958E-16 -0.1138507596E+01
  0.8000000000E+00  0.1000000000E+01  0.4000000000E+00  0.2431626610E+01 -0.1082398678E-16 -0.1796701940E+01  0.3068832955E+16  0.2866557655E+01 -0.1069275093E-16 -0.7273470658E+00
ZONE I=6, J=6, K=1, F=POINT
  0.1600000000E+01  0.1000000000E+01  0.0000000000E+00 -0.2420355773E+00 -0.1197976329E-17 -0.5397128337E-01  0.3068832955E+16  0.8407421876E-01 -0.1411473214E-17 -0.6149740340E-01
  0.1553011065E+01  0.1000000000E+01  0.0000000000E+00 -0.3542423803E+00  0.1648938479E-16  0.4788695278E-01  0.3068832955E+16 -0.2871056031E-01  0.9804042687E-18  0.4708872178E-01
  0.1457046303E+01  0.1000000000E+01  0.0000000000E+00 -0.3463047437E+00  0.7687129963E-17 -0.7934742175E-03  0.3068832955E+16 -0.1756700306E-01 -0.1201678489E-18  0.3186089008E-03
  0.1342953697E+01  0.1000000000E+01  0.0000000000E+00 -0.3071801535E+00 -0.1699486307E-16  0.3214690606E-01  0.3068832955E+16  0.2737640413E-01  0.1521236777E-17  0.3267474281E-01
  0.1246988935E+01  0.1000000000E+01  0.0000000000E+00 -0.2995599528E+00 -0.7807192719E-18 -0.5817915788E-02  0.3068832955E+16  0.3788905711E-01  0.1014669161E-17 -0.4587716493E-02
  0.1200000000E+01  0.1000000000E+01  0.0000000000E+00 -0.2228638242E+00 -0.1535021505E-18  0.3975600533E-01  0.3068832955E+16  0.1167527963E+00 -0.3976026520E-19  0.4154492777E-01
  0.1600000000E+01  0.1000000000E+01  0.4698893521E-01  0.1995223484E+01 -0.6766082414E-16 -0.1504619014E+00  0.3068832955E+16  0.2258648197E+01 -0.7387122365E-16  0.5852305488E+00
  0.1553011065E+01  0.1000000000E+01  0.4698893521E-01  0.2629548770E+01 -0.7363818493E-16 -0.7013295255E+00  0.3068832955E+16  0.2902854645E+01 -0.6576128537E-16  0.7475461586E-03
  0.1457046303E+01  0.1000000000E+01  0.4698893521E-01  0.1726349448E+01  0.1966823608E-16 -0.6800203085E+00  0.3068832955E+16  0.2051973468E+01  0.1047765769E-16 -0.4493286968E-01
  0.1342953697E+01  0.1000000000E+01  0.4698893521E-01  0.1779268172E+01  0.1720176544E-16 -0.6191756043E+00  0.3068832955E+16  0.2173939440E+01  0.2095471902E-16 -0.5877377328E-01
  0.1246988935E+01  0.1000000000E+01  0.4698893521E-01  0.1261455325E+01 -0.4761930189E-16 -0.5658780877E+00  0.3068832955E+16  0.1694703383E+01 -0.2920113913E-16 -0.6381740500E-01
  0.1200000000E+01  0.1000000000E+01  0.4698893521E-01  0.1608385946E+01 -0.5846507290E-17 -0.7305189772E+00  0.3068832955E+16  0.2051081570E+01 -0.2644098648E-16 -0.2345268271E+00
  0.1600000000E+01  0.1000000000E+01  0.1429536967E+00  0.5441004892E+01 -0.3391575235E-15 -0.2689329065E+01  0.3068832955E+16  0.5677168973E+01 -0.3231690759E-15 -0.2001010966E+01
  0.1553011065E+01  0.1000000000E+01  0.1429536967E+00  0.7499969457E+01 -0.1205333959E-15 -0.1820156981E+01  0.3068832955E+16  0.7804682932E+01 -0.1361033424E-15 -0.1105541978E+01
  0.1457046303E+01  0.1000000000E+01  0.1429536967E+00  0.5531906414E+01 -0.3940638443E-16 -0.1768937447E+01  0.3068832955E+16  0.5915088987E+01 -0.1492867056E-16 -0.1063763947E+01
  0.1342953697E+01  0.1000000000E+01  0.1429536967E+00  0.5547789237E+01  0.5129038709E-16 -0.1050961940E+01  0.3068832955E+16  0.5989320405E+01  0.6792227170E-16 -0.3815310221E+00
  0.1246988935E+01  0.1000000000E+01  0.1429536967E+00  0.4330754935E+01  0.9237879267E-16 -0.1626464002E+01  0.3068832955E+16  0.4765652699E+01  0.5562371820E-16 -0.9399839218E+00
  0.1200000000E+01  0.1000000000E+01  0.1429536967E+00  0.4924689938E+01 -0.4076832045E-16 -0.1475147634E+01  0.3068832955E+16  0.5309143650E+01 -0.5110003333E-16 -0.7582253009E+00
  0.1600000000E+01  0.1000000000E+01  0.2570463033E+00  0.1067483716E+02  0.7654501503E-16 -0.4310533301E+01  0.3068832955E+16  0.1077520034E+02  0.7669561155E-16 -0.3920856453E+01
  0.1553011065E+01  0.1000000000E+01  0.2570463033E+00  0.9852488437E+01  0.8436696195E-16 -0.3160526924E+01  0.3068832955E+16  0.1005217815E+02  0.9123407870E-16 -0.2700482817E+01
  0.1457046303E+01  0.1000000000E+01  0.2570463033E+00  0.8651844542E+01  0.9772995538E-16 -0.2947311991E+01  0.3068832955E+16  0.9016503861E+01  0.1183723362E-15 -0.2399211041E+01
  0.1342953697E+01  0.1000000000E+01  0.2570463033E+00  0.7200604846E+01  0.4877168476E-16 -0.1950060883E+01  0.3068832955E+16  0.7609129648E+01  0.7179069838E-16 -0.1347574785E+01
  0.1246988935E+01  0.1000000000E+01  0.2570463033E+00  0.6059671415E+01 -0.3822909991E-16 -0.2783838083E+01  0.3068832955E+16  0.6388345958E+01 -0.1246910181E-16 -0.2102263600E+01
  0.1200000000E+01  0.1000000000E+01  0.2570463033E+00  0.5479258168E+01 -0.2260615097E-16 -0.2544896378E+01  0.3068832955E+16  0.5761467022E+01 -0.2165860894E-16 -0.1817270955E+01
  0.1600000000E+01  0.1000000000E+01  0.3530110648E+00  0.9392676485E+01  0.1789743351E-15 -0.4415176934E+01  0.3068832955E+16  0.9391598419E+01  0.1784156841E-15 -0.3790618614E+01
  0.1553011065E+01  0.1000000000E+01  0.3530110648E+00  0.9823852399E+01  0.1669177704E-15 -0.4313025042E+01  0.3068832955E+16  0.9928376902E+01  0.1678985259E-15 -0.3664478837E+01
  0.1457046303E+01  0.1000000000E+01  0.3530110648E+00  0.8839171280E+01  0.1042407937E-15 -0.4026150991E+01  0.3068832955E+16  0.9141996891E+01  0.1128171688E-15 -0.3326423410E+01
  0.1342953697E+01  0.1000000000E+01  0.3530110648E+00  0.7731264839E+01  0.8341863206E-16 -0.3458994029E+01  0.3068832955E+16  0.8090906875E+01  0.8791456396E-16 -0.2700502539E+01
  0.1246988935E+01  0.1000000000E+01  0.3530110648E+00  0.6358848081E+01  0.7365163209E-16 -0.3732091438E+01  0.3068832955E+16  0.6622391027E+01  0.5800749175E-16 -0.2940854358E+01
  0.1200000000E+01  0.1000000000E+01  0.3530110648E+00  0.6093086908E+01  0.5287876192E-17 -0.3676207114E+01  0.3068832955E+16  0.6307562440E+01  0.5861641879E-17 -0.2873351168E+01
  0.1600000000E+01  0.1000000000E+01  0.4000000000E+00  0.9633743600E+01  0.1725141924E-15 -0.5214858618E+01  0.3068832955E+16  0.9609156191E+01  0.1730384097E-15 -0.4616091990E+01
  0.1553011065E+01  0.1000000000E+01  0.4000000000E+00  0.9263135461E+01  0.1992053421E-15 -0.4397358044E+01  0.3068832955E+16  0.9356344777E+01  0.2023278798E-15 -0.3782482642E+01
  0.1457046303E+01  0.1000000000E+01  0.4000000000E+00  0.8883531408E+01  0.1432138376E-15 -0.4566564342E+01  0.3068832955E+16  0.9166687726E+01  0.1468572196E-15 -0.3947598484E+01
  0.1342953697E+01  0.1000000000E+01  0.4000000000E+00  0.7586033482E+01  0.3348884618E-16 -0.3870788408E+01  0.3068832955E+16  0.7924259121E+01  0.6139858716E-16 -0.3196547203E+01
  0.1246988935E+01  0.1000000000E+01  0.4000000000E+00  0.6542728053E+01  0.4176664600E-16 -0.4283176065E+01  0.3068832955E+16  0.6799121871E+01  0.2998885407E-16 -0.3569394739E+01
  0.1200000000E+01  0.1000000000E+01  0.4000000000E+00  0.5791032921E+01  0.3449063718E-17 -0.3955780927E+01  0.3068832955E+16  0.6004769622E+01  0.3876525758E-17 -0.3247164242E+01
ZONE I=6, J=6, K=1, F=POINT
  0.2000000000E+01  0.1000000000E+01  0.0000000000E+00  0.2354183587E+01 -0.1470476949E-19  0.2119759214E+02  0.3068832955E+16  0.2400585633E+01  0.5233355308E-19  0.2212715104E+02
  0.1953011065E+01  0.1000000000E+01  0.0000000000E+00  0.8806419032E+00 -0.2861182935E-16 -0.1937788684E+00  0.3068832955E+16  0.1147349915E+01 -0.3346135764E-16 -0.1892380960E+00
  0.1857046303E+01  0.1000000000E+01  0.0000000000E+00 -0.7912621845E+00 -0.4606298522E-16  0.1662802253E+00  0.3068832955E+16 -0.4536205135E+00 -0.2699108224E-16  0.1658336023E+00
  0.1742953697E+01  0.1000000000E+01  0.0000000000E+00 -0.2868045570E+00 -0.1136798221E-17 -0.4112986817E-01  0.3068832955E+16  0.4405862175E-01 -0.4126280665E-18 -0.3689184195E-01
  0.1646988935E+01  0.1000000000E+01  0.0000000000E+00 -0.5786976678E+00  0.1453894014E-17  0.6744925580E-01  0.3068832955E+16 -0.1994640035E+00  0.1262753242E-18  0.6498951431E-01
  0.1600000000E+01  0.1000000000E+01  0.0000000000E+00 -0.2737075088E+00 -0.1205609376E-17 -0.6568300772E-01  0.3068832955E+16  0.4724246091E-01 -0.1455156197E-17 -0.7209575658E-01
  0.2000000000E+01  0.1000000000E+01  0.4698893521E-01 -0.7342935782E-01  0.6788030808E-18  0.4806044285E+02  0.3068832955E+16 -0.9604958606E-01  0.4508705993E-18  0.4851385379E+02
  0.1953011065E+01  0.1000000000E+01  0.4698893521E-01  0.1000098915E+02  0.1252311392E-15  0.5036698588E+00  0.3068832955E+16  0.9929386187E+01  0.1229920184E-15  0.5182269881E+00
  0.1857046303E+01  0.1000000000E+01  0.4698893521E-01  0.1043754014E+02  0.2022416097E-15 -0.2828363187E+01  0.3068832955E+16  0.1041346962E+02  0.2015534878E-15 -0.2649007538E+01
  0.1742953697E+01  0.1000000000E+01  0.4698893521E-01  0.4548563268E+01 -0.4598007490E-16 -0.1495956477E+01  0.3068832955E+16  0.4635110274E+01 -0.4595802531E-16 -0.9594199863E+00
  0.1646988935E+01  0.1000000000E+01  0.4698893521E-01  0.3127326242E+01 -0.5719946595E-16 -0.1142905673E+01  0.3068832955E+16  0.3337241730E+01 -0.6945489477E-16 -0.4132336309E+00
  0.1600000000E+01  0.1000000000E+01  0.4698893521E-01  0.1836075138E+01 -0.6518258650E-16 -0.1648274906E+00  0.3068832955E+16  0.2110247922E+01 -0.7132714270E-16  0.5651447162E+00
  0.2000000000E+01  0.1000000000E+01  0.1429536967E+00 -0.2690071926E+00  0.3574454035E-17  0.4998736700E+02  0.3068832955E+16 -0.2435100313E+00  0.4357643780E-17  0.5030340286E+02
  0.1953011065E+01  0.1000000000E+01  0.1429536967E+00  0.1775147910E+01 -0.6033337231E-15  0.1511931156E+02  0.3068832955E+16  0.1706842959E+01 -0.6081571571E-15  0.1524149946E+02
  0.1857046303E+01  0.1000000000E+01  0.1429536967E+00  0.1149441935E+02 -0.2045727835E-15 -0.4884602553E+01  0.3068832955E+16  0.1118094787E+02 -0.1865840090E-15 -0.4736270681E+01
  0.1742953697E+01  0.1000000000E+01  0.1429536967E+00  0.8663405299E+01 -0.1732527401E-15 -0.5203397415E+01  0.3068832955E+16  0.8425656455E+01 -0.1959710802E-15 -0.4723721960E+01
  0.1646988935E+01  0.1000000000E+01  0.1429536967E+00  0.7807810697E+01 -0.1802482345E-15 -0.3020151082E+01  0.3068832955E+16  0.7935425377E+01 -0.1830168102E-15 -0.2364098600E+01
  0.1600000000E+01  0.1000000000E+01  0.1429536967E+00  0.5072977237E+01 -0.3569239909E-15 -0.2688152287E+01  0.3068832955E+16  0.5347449193E+01 -0.3414644541E-15 -0.2005651948E+01
  0.2000000000E+01  0.1000000000E+01  0.2570463033E+00  0.1349362313E-01  0.8993673642E-18  0.4941021723E+02  0.3068832955E+16  0.1946615190E-01  0.1015247077E-17  0.4980903438E+02