TITLE = "Generated from ../MESH/Convergence_0000000000.hmesh and Convergence_0000001300.hsol"
VARIABLES = "x","y","z","veloT_x","veloT_y","veloT_z","slr_4","velo_x","velo_y","velo_z"
ZONE I=6, J=6, K=1, F=POINT
  0.4000000000E+00  0.1000000000E+01  0.0000000000E+00 -0.1103403142E-01  0.2950916420E-19  0.7043382816E-02  0.5876772862E+15 -0.1085805193E-01  0.2968881525E-19  0.7295642254E-02
  0.3530110648E+00  0.1000000000E+01  0.0000000000E+00  0.1563316698E-04  0.1016127153E-19 -0.4498156855E-03  0.5876772862E+15  0.1472153182E-03  0.1188983796E-19 -0.4419343512E-03
  0.2570463033E+00  0.1000000000E+01  0.0000000000E+00  0.1299709709E-02  0.1790941269E-20  0.2206313826E-02  0.5876772862E+15  0.1196170838E-02  0.1984426953E-20  0.2143586183E-02
  0.1429536967E+00  0.1000000000E+01  0.0000000000E+00  0.6784591112E-03  0.3974087018E-21 -0.1061548560E-02  0.5876772862E+15  0.9051833871E-04  0.3885306912E-21 -0.1082351680E-02
  0.4698893521E-01  0.1000000000E+01  0.0000000000E+00  0.3331467064E-02 -0.1763784160E-20  0.1716407504E-02  0.5876772862E+15  0.2750990818E-02 -0.1582079344E-20  0.1726017942E-02
  0.0000000000E+00  0.1000000000E+01  0.0000000000E+00 -0.7411491449E-02  0.9328173363E-23  0.1938042965E-02  0.5876772862E+15 -0.7471301691E-02  0.1060098917E-22  0.1955016757E-02
  0.4000000000E+00  0.1000000000E+01  0.4698893521E-01  0.2460935125E+00  0.2502744001E-17 -0.6009551059E-01  0.5876772862E+15  0.2479612753E+00  0.2493078219E-17 -0.5999604053E-01
  0.3530110648E+00  0.1000000000E+01  0.4698893521E-01  0.1062887624E+00  0.2143817793E-17 -0.2119344090E-01  0.5876772862E+15  0.1082828303E+00  0.2123225845E-17 -0.2046064329E-01
  0.2570463033E+00  0.1000000000E+01  0.4698893521E-01  0.8488881413E-01  0.5707673369E-18 -0.2770513604E-01  0.5876772862E+15  0.8639649723E-01  0.5726221639E-18 -0.2548233681E-01
  0.1429536967E+00  0.1000000000E+01  0.4698893521E-01  0.2555232660E-02  0.3335911069E-19 -0.1537106237E-01  0.5876772862E+15  0.4198074793E-02  0.3874617965E-19 -0.1411767561E-01
  0.4698893521E-01  0.1000000000E+01  0.4698893521E-01  0.8269397970E-03 -0.5831901660E-20 -0.1234979016E-01  0.5876772862E+15  0.2323260178E-02 -0.4403486101E-20 -0.1292500828E-01
  0.0000000000E+00  0.1000000000E+01  0.4698893521E-01 -0.1823025724E-01  0.9616942531E-21  0.8904504960E-03  0.5876772862E+15 -0.1823489565E-01  0.9635575098E-21  0.1516772534E-02
  0.4000000000E+00  0.1000000000E+01  0.1429536967E+00  0.4973123655E+00  0.8333469040E-17 -0.1319925306E+00  0.5876772862E+15  0.4966744894E+00  0.8327544961E-17 -0.1441594778E+00
  0.3530110648E+00  0.1000000000E+01  0.1429536967E+00  0.2492462600E+00  0.4621324147E-17 -0.1640057777E+00  0.5876772862E+15  0.2480231040E+00  0.4688030398E-17 -0.1739851513E+00
  0.2570463033E+00  0.1000000000E+01  0.1429536967E+00  0.1767824757E+00  0.1084890174E-17 -0.9311699378E-01  0.5876772862E+15  0.1763924799E+00  0.1082215821E-17 -0.9883186236E-01
  0.1429536967E+00  0.1000000000E+01  0.1429536967E+00  0.1507248097E-01  0.1414536753E-18 -0.1035369317E+00  0.5876772862E+15  0.1702414162E-01  0.1402111392E-18 -0.1061001996E+00
  0.4698893521E-01  0.1000000000E+01  0.1429536967E+00 -0.8113733257E-02  0.7458312479E-20 -0.1078596352E-01  0.5876772862E+15 -0.6345708821E-02  0.1301779914E-19 -0.1206566998E-01
  0.0000000000E+00  0.1000000000E+01  0.1429536967E+00 -0.2167157044E-01  0.6242518567E-22 -0.2954092641E-02  0.5876772862E+15 -0.2159987878E-01  0.2687850727E-21 -0.2239241017E-02
  0.4000000000E+00  0.1000000000E+01  0.2570463033E+00  0.4875397606E+00  0.6868005939E-18 -0.3141190345E+00  0.5876772862E+15  0.4816320406E+00  0.6761250326E-18 -0.3331253083E+00
  0.3530110648E+00  0.1000000000E+01  0.2570463033E+00  0.3487251055E+00 -0.3462284444E-18 -0.3542701139E+00  0.5876772862E+15  0.3396012396E+00 -0.5665048058E-18 -0.3698820150E+00
  0.2570463033E+00  0.1000000000E+01  0.2570463033E+00  0.2220738617E+00 -0.1968574074E-18 -0.2268781006E+00  0.5876772862E+15  0.2148909188E+00 -0.1950101237E-18 -0.2337726618E+00
  0.1429536967E+00  0.1000000000E+01  0.2570463033E+00  0.5666692140E-01  0.2320526031E-18 -0.2345908369E+00  0.5876772862E+15  0.5563886342E-01  0.2329155582E-18 -0.2362436343E+00
  0.4698893521E-01  0.1000000000E+01  0.2570463033E+00  0.3773802229E-02  0.4783076344E-18 -0.3967908825E-01  0.5876772862E+15  0.4727601367E-02  0.4634863882E-18 -0.4090033484E-01
  0.0000000000E+00  0.1000000000E+01  0.2570463033E+00 -0.1440902587E-01 -0.3302165011E-20 -0.2689019456E-02  0.5876772862E+15 -0.1438747356E-01 -0.3630462040E-20 -0.2141638499E-02
  0.4000000000E+00  0.1000000000E+01  0.3530110648E+00  0.4691301138E+00 -0.1620938266E-18 -0.4614204218E+00  0.5876772862E+15  0.4615655219E+00 -0.1551180148E-18 -0.4731999293E+00
  0.3530110648E+00  0.1000000000E+01  0.3530110648E+00  0.3475107273E+00 -0.4325406102E-18 -0.4789146792E+00  0.5876772862E+15  0.3294143104E+00 -0.4314437535E-18 -0.4889175315E+00
  0.2570463033E+00  0.1000000000E+01  0.3530110648E+00  0.2362934970E+00 -0.9743976785E-18 -0.3577459788E+00  0.5876772862E+15  0.2215015933E+00 -0.9568548456E-18 -0.3591070935E+00
  0.1429536967E+00  0.1000000000E+01  0.3530110648E+00  0.6285846235E-01  0.2236057421E-18 -0.3406157263E+00  0.5876772862E+15  0.6207713248E-01  0.2103631091E-18 -0.3391790320E+00
  0.4698893521E-01  0.1000000000E+01  0.3530110648E+00  0.4013211787E-02  0.9684427238E-20 -0.9463966174E-01  0.5876772862E+15  0.6319989468E-02  0.1496610313E-19 -0.9528691693E-01
  0.0000000000E+00  0.1000000000E+01  0.3530110648E+00 -0.1449978465E-01  0.4701256029E-20 -0.3020711455E-02  0.5876772862E+15 -0.1444229005E-01  0.4364889952E-20 -0.2331722443E-02
  0.4000000000E+00  0.1000000000E+01  0.4000000000E+00  0.4316920770E+00  0.1289778176E-17 -0.5252443487E+00  0.5876772862E+15  0.4260143099E+00  0.1289333287E-17 -0.5339791589E+00
  0.3530110648E+00  0.1000000000E+01  0.4000000000E+00  0.3697557997E+00  0.6383904488E-18 -0.5385201327E+00  0.5876772862E+15  0.3491843262E+00  0.6747203838E-18 -0.5478697214E+00
  0.2570463033E+00  0.1000000000E+01  0.4000000000E+00  0.2410110983E+00 -0.1669535033E-17 -0.4145691693E+00  0.5876772862E+15  0.2234459841E+00 -0.1708759420E-17 -0.4202437288E+00
  0.1429536967E+00  0.1000000000E+01  0.4000000000E+00  0.7417974537E-01 -0.2252753402E-18 -0.3927578733E+00  0.5876772862E+15  0.7360534918E-01 -0.2297748666E-18 -0.3950137433E+00
  0.4698893521E-01  0.1000000000E+01  0.4000000000E+00 -0.1349503504E-03 -0.2364617800E-18 -0.1200777499E+00  0.5876772862E+15  0.2493181563E-02 -0.2360219586E-18 -0.1209703859E+00
  0.0000000000E+00  0.1000000000E+01  0.4000000000E+00 -0.7083764297E-02  0.7889426365E-20 -0.3976029692E-02  0.5876772862E+15 -0.6906858453E-02  0.7975187557E-20 -0.3396556241E-02
ZONE I=6, J=6, K=1, F=POINT
  0.8000000000E+00  0.1000000000E+01  0.0000000000E+00  0.1790440207E-01 -0.7037259997E-19 -0.1149683187E-01  0.5876772862E+15  0.1852482722E-01 -0.7157942858E-19 -0.1157075928E-01
  0.7530110648E+00  0.1000000000E+01  0.0000000000E+00  0.1933444860E-02  0.9811991083E-19  0.5815618046E-02  0.5876772862E+15  0.2533406154E-02  0.1157427989E-18  0.5918042319E-02
  0.6570463033E+00  0.1000000000E+01  0.0000000000E+00 -0.3513848776E-03  0.2280449319E-19  0.2434662276E-03  0.5876772862E+15  0.3333594629E-03  0.3125820920E-19  0.2777454687E-03
  0.5429536967E+00  0.1000000000E+01  0.0000000000E+00  0.1265460071E-02  0.3996600267E-19  0.6864105502E-02  0.5876772862E+15  0.1724851855E-02  0.5240108659E-19  0.6829106644E-02
  0.4469889352E+00  0.1000000000E+01  0.0000000000E+00 -0.1051397803E-02 -0.8236965694E-20  0.5008047787E-03  0.5876772862E+15 -0.1033995649E-02 -0.5408752641E-20  0.5114386148E-03
  0.4000000000E+00  0.1000000000E+01  0.0000000000E+00  0.1606005382E-01  0.3315935502E-19  0.6736451622E-02  0.5876772862E+15  0.1607507164E-01  0.3338360442E-19  0.6967673729E-02
  0.8000000000E+00  0.1000000000E+01  0.4698893521E-01  0.3283807911E+00 -0.2679454872E-16 -0.6015696999E-02  0.5876772862E+15  0.3304806723E+00 -0.2681262971E-16 -0.2306155786E-02
  0.7530110648E+00  0.1000000000E+01  0.4698893521E-01  0.5283730860E+00 -0.2658711829E-16 -0.6745420535E-01  0.5876772862E+15  0.5306318140E+00 -0.2671835800E-16 -0.6467314630E-01
  0.6570463033E+00  0.1000000000E+01  0.4698893521E-01  0.3072504632E+00 -0.5881432912E-17 -0.3879714644E-01  0.5876772862E+15  0.3101135002E+00 -0.5846703641E-17 -0.3886771187E-01
  0.5429536967E+00  0.1000000000E+01  0.4698893521E-01  0.3252999980E+00  0.4430103117E-17 -0.2839481173E-01  0.5876772862E+15  0.3273504637E+00  0.4464399217E-17 -0.2919631019E-01
  0.4469889352E+00  0.1000000000E+01  0.4698893521E-01  0.1867659926E+00  0.3627159885E-17 -0.1806331531E-01  0.5876772862E+15  0.1879215646E+00  0.3621118202E-17 -0.1834396563E-01
  0.4000000000E+00  0.1000000000E+01  0.4698893521E-01  0.2890997381E+00  0.2256641832E-17 -0.6085524627E-01  0.5876772862E+15  0.2904525314E+00  0.2249596782E-17 -0.6074680514E-01
  0.8000000000E+00  0.1000000000E+01  0.1429536967E+00  0.8041035447E+00 -0.5534901161E-16 -0.3337978708E+00  0.5876772862E+15  0.8099844450E+00 -0.5517481162E-16 -0.3370705523E+00
  0.7530110648E+00  0.1000000000E+01  0.1429536967E+00  0.1133700243E+01 -0.3639877512E-16 -0.2077258095E+00  0.5876772862E+15  0.1141124558E+01 -0.3641138378E-16 -0.2142726557E+00
  0.6570463033E+00  0.1000000000E+01  0.1429536967E+00  0.7402886142E+00 -0.7406779573E-17 -0.2231010673E+00  0.5876772862E+15  0.7459457765E+00 -0.7640050135E-17 -0.2345432053E+00
  0.5429536967E+00  0.1000000000E+01  0.1429536967E+00  0.7020909404E+00  0.8772972429E-17 -0.8717114277E-01  0.5876772862E+15  0.7041385068E+00  0.8821177834E-17 -0.1003524484E+00
  0.4469889352E+00  0.1000000000E+01  0.1429536967E+00  0.4180385450E+00  0.8525382019E-17 -0.1603952295E+00  0.5876772862E+15  0.4185180533E+00  0.8584801661E-17 -0.1735104859E+00
  0.4000000000E+00  0.1000000000E+01  0.1429536967E+00  0.5487001399E+00  0.9051565342E-17 -0.1314752640E+00  0.5876772862E+15  0.5480282566E+00  0.9047543817E-17 -0.1436309710E+00
  0.8000000000E+00  0.1000000000E+01  0.2570463033E+00  0.1287748170E+01 -0.1236823224E-16 -0.6998249023E+00  0.5876772862E+15  0.1300842352E+01 -0.1235620365E-16 -0.7073660266E+00
  0.7530110648E+00  0.1000000000E+01  0.2570463033E+00  0.1245292369E+01 -0.1025185245E-16 -0.4897773997E+00  0.5876772862E+15  0.1260961205E+01 -0.1046968738E-16 -0.4996991417E+00
  0.6570463033E+00  0.1000000000E+01  0.2570463033E+00  0.9295803331E+00 -0.6899472608E-17 -0.4919104642E+00  0.5876772862E+15  0.9401965523E+00 -0.7178121230E-17 -0.5075167473E+00
  0.5429536967E+00  0.1000000000E+01  0.2570463033E+00  0.7427017200E+00 -0.2790130555E-18 -0.2649642144E+00  0.5876772862E+15  0.7463096296E+00 -0.2144347436E-18 -0.2847830522E+00
  0.4469889352E+00  0.1000000000E+01  0.2570463033E+00  0.5159858810E+00  0.5744218931E-18 -0.3654072338E+00  0.5876772862E+15  0.5153188004E+00  0.3192601280E-18 -0.3854380783E+00
  0.4000000000E+00  0.1000000000E+01  0.2570463033E+00  0.5188935189E+00  0.7155346483E-18 -0.3135070787E+00  0.5876772862E+15  0.5133914904E+00  0.7051297303E-18 -0.3325416245E+00
  0.8000000000E+00  0.1000000000E+01  0.3530110648E+00  0.1115087922E+01 -0.2597231956E-18 -0.9368344892E+00  0.5876772862E+15  0.1129820180E+01 -0.2750519062E-18 -0.9427266479E+00
  0.7530110648E+00  0.1000000000E+01  0.3530110648E+00  0.1133156554E+01  0.4117622959E-17 -0.7763753827E+00  0.5876772862E+15  0.1152155964E+01  0.5133123497E-17 -0.7817019031E+00
  0.6570463033E+00  0.1000000000E+01  0.3530110648E+00  0.8488842072E+00 -0.3784985362E-17 -0.6987044850E+00  0.5876772862E+15  0.8654104525E+00 -0.4222858310E-17 -0.7066226807E+00
  0.5429536967E+00  0.1000000000E+01  0.3530110648E+00  0.6854769730E+00 -0.5822757658E-17 -0.4517405820E+00  0.5876772862E+15  0.6912198076E+00 -0.6042605359E-17 -0.4656793147E+00
  0.4469889352E+00  0.1000000000E+01  0.3530110648E+00  0.4600131443E+00 -0.6562350272E-18 -0.5022488437E+00  0.5876772862E+15  0.4572249917E+00 -0.5528545077E-18 -0.5148905668E+00
  0.4000000000E+00  0.1000000000E+01  0.3530110648E+00  0.5021539537E+00 -0.1910584684E-18 -0.4612270031E+00  0.5876772862E+15  0.4953208602E+00 -0.1833132148E-18 -0.4730066307E+00
  0.8000000000E+00  0.1000000000E+01  0.4000000000E+00  0.1074353396E+01 -0.1052890885E-16 -0.1085187673E+01  0.5876772862E+15  0.1089550557E+01 -0.1053447360E-16 -0.1095575761E+01
  0.7530110648E+00  0.1000000000E+01  0.4000000000E+00  0.9807801687E+00 -0.6215635986E-17 -0.8725594599E+00  0.5876772862E+15  0.9983198719E+00 -0.6062395353E-17 -0.8815868512E+00
  0.6570463033E+00  0.1000000000E+01  0.4000000000E+00  0.7696070558E+00 -0.4560195205E-17 -0.7978069266E+00  0.5876772862E+15  0.7882110702E+00 -0.4540862816E-17 -0.8042165447E+00
  0.5429536967E+00  0.1000000000E+01  0.4000000000E+00  0.6131807834E+00  0.7539579890E-18 -0.5728704030E+00  0.5876772862E+15  0.6201261742E+00  0.8963269696E-18 -0.5840674059E+00
  0.4469889352E+00  0.1000000000E+01  0.4000000000E+00  0.4819983047E+00  0.1911076995E-17 -0.5838492071E+00  0.5876772862E+15  0.4770260495E+00  0.1807812731E-17 -0.5939452224E+00
  0.4000000000E+00  0.1000000000E+01  0.4000000000E+00  0.4437949058E+00  0.1305552591E-17 -0.5245226537E+00  0.5876772862E+15  0.4384758649E+00  0.1306530527E-17 -0.5332952078E+00
ZONE I=6, J=6, K=1, F=POINT
  0.1200000000E+01  0.1000000000E+01  0.0000000000E+00 -0.3211066261E-01  0.6876398898E-19  0.3697328765E-01  0.5876772862E+15 -0.3210708416E-01  0.7005288224E-19  0.3688693670E-01
  0.1153011065E+01  0.1000000000E+01  0.0000000000E+00 -0.5189660829E-02 -0.1817349529E-18 -0.9513831737E-02  0.5876772862E+15 -0.5025856131E-02 -0.1709183804E-18 -0.9481455462E-02
  0.1057046303E+01  0.1000000000E+01  0.0000000000E+00  0.2175826129E-02  0.3051952394E-19  0.6036808691E-02  0.5876772862E+15  0.2327797496E-02  0.3355594132E-19  0.6017047667E-02
  0.9429536967E+00  0.1000000000E+01  0.0000000000E+00 -0.2039110335E-02  0.2381703614E-19 -0.8133445189E-02  0.5876772862E+15 -0.1850835920E-02  0.2632659372E-19 -0.8112320726E-02
  0.8469889352E+00  0.1000000000E+01  0.0000000000E+00  0.3688311642E-02 -0.5420391360E-20  0.5384939482E-02  0.5876772862E+15  0.3986883914E-02 -0.5702571671E-20  0.5466198308E-02
  0.8000000000E+00  0.1000000000E+01  0.0000000000E+00 -0.2725347920E-01 -0.7985568176E-19 -0.1096354452E-01  0.5876772862E+15 -0.2700460773E-01 -0.8109753525E-19 -0.1102361146E-01
  0.1200000000E+01  0.1000000000E+01  0.4698893521E-01  0.1909144728E+01 -0.4129236504E-16 -0.1821348387E+00  0.5876772862E+15  0.1910472836E+01 -0.4132396747E-16 -0.1715151786E+00
  0.1153011065E+01  0.1000000000E+01  0.4698893521E-01  0.1267783182E+01 -0.2556715108E-16 -0.3624902216E-01  0.5876772862E+15  0.1268388226E+01 -0.2559338484E-16 -0.2585044336E-01
  0.1057046303E+01  0.1000000000E+01  0.4698893521E-01  0.1218551212E+01 -0.1041425772E-16 -0.8047916027E-01  0.5876772862E+15  0.1219494471E+01 -0.1039552414E-16 -0.7098342384E-01
  0.9429536967E+00  0.1000000000E+01  0.4698893521E-01  0.7006493177E+00 -0.1580726078E-16 -0.7938999409E-01  0.5876772862E+15  0.7021673123E+00 -0.1584263070E-16 -0.7297239553E-01
  0.8469889352E+00  0.1000000000E+01  0.4698893521E-01  0.6471363633E+00 -0.3099902575E-16 -0.8883440616E-01  0.5876772862E+15  0.6490745805E+00 -0.3108914707E-16 -0.8404173447E-01
  0.8000000000E+00  0.1000000000E+01  0.4698893521E-01  0.2673255467E+00 -0.2609981268E-16 -0.3951992127E-02  0.5876772862E+15  0.2697386830E+00 -0.2612803648E-16 -0.2869553963E-03
  0.1200000000E+01  0.1000000000E+01  0.1429536967E+00  0.4030747734E+01 -0.5697224104E-16 -0.4467615040E+00  0.5876772862E+15  0.4039405161E+01 -0.5709733881E-16 -0.4307691805E+00
  0.1153011065E+01  0.1000000000E+01  0.1429536967E+00  0.2693907563E+01 -0.6531652287E-16 -0.6506125569E+00  0.5876772862E+15  0.2697620751E+01 -0.6527813036E-16 -0.6368710467E+00
  0.1057046303E+01  0.1000000000E+01  0.1429536967E+00  0.2540364129E+01 -0.3772593706E-16 -0.4552240748E+00  0.5876772862E+15  0.2545790512E+01 -0.3774517617E-16 -0.4463649772E+00
  0.9429536967E+00  0.1000000000E+01  0.1429536967E+00  0.1524766310E+01 -0.3404803896E-16 -0.6105954362E+00  0.5876772862E+15  0.1530685527E+01 -0.3405581044E-16 -0.6080490445E+00
  0.8469889352E+00  0.1000000000E+01  0.1429536967E+00  0.1389877980E+01 -0.5164919602E-16 -0.3313995749E+00  0.5876772862E+15  0.1394491190E+01 -0.5174976814E-16 -0.3327884997E+00
  0.8000000000E+00  0.1000000000E+01  0.1429536967E+00  0.7209294311E+00 -0.5754605266E-16 -0.3353242276E+00  0.5876772862E+15  0.7283870959E+00 -0.5737908668E-16 -0.3385948886E+00
  0.1200000000E+01  0.1000000000E+01  0.2570463033E+00  0.3325941956E+01 -0.1667903643E-16 -0.1208874707E+01  0.5876772862E+15  0.3337340662E+01 -0.1664307738E-16 -0.1206794773E+01
  0.1153011065E+01  0.1000000000E+01  0.2570463033E+00  0.2948914029E+01 -0.5598504217E-16 -0.1457516720E+01  0.5876772862E+15  0.2958623456E+01 -0.5684064151E-16 -0.1457609932E+01
  0.1057046303E+01  0.1000000000E+01  0.2570463033E+00  0.2454165832E+01 -0.4079361621E-16 -0.1085445936E+01  0.5876772862E+15  0.2465127528E+01 -0.4079211593E-16 -0.1088172158E+01
  0.9429536967E+00  0.1000000000E+01  0.2570463033E+00  0.1847656592E+01 -0.3691639033E-16 -0.1230775742E+01  0.5876772862E+15  0.1857915340E+01 -0.3742310443E-16 -0.1234307974E+01
  0.8469889352E+00  0.1000000000E+01  0.2570463033E+00  0.1556893741E+01 -0.1401758577E-16 -0.7279726854E+00  0.5876772862E+15  0.1566437536E+01 -0.1381954256E-16 -0.7339504940E+00
  0.8000000000E+00  0.1000000000E+01  0.2570463033E+00  0.1248968173E+01 -0.1255201934E-16 -0.7020349541E+00  0.5876772862E+15  0.1262260133E+01 -0.1254331087E-16 -0.7093638007E+00
  0.1200000000E+01  0.1000000000E+01  0.3530110648E+00  0.3013147509E+01  0.6918377128E-17 -0.1998189603E+01  0.5876772862E+15  0.3024307448E+01  0.6939981215E-17 -0.2009811244E+01
  0.1153011065E+01  0.1000000000E+01  0.3530110648E+00  0.2464635615E+01 -0.1226390148E-16 -0.1925035287E+01  0.5876772862E+15  0.2475536542E+01 -0.1238035533E-16 -0.1935248378E+01
  0.1057046303E+01  0.1000000000E+01  0.3530110648E+00  0.2106074296E+01 -0.2404989999E-16 -0.1582519910E+01  0.5876772862E+15  0.2115755746E+01 -0.2396088700E-16 -0.1590395609E+01
  0.9429536967E+00  0.1000000000E+01  0.3530110648E+00  0.1570870293E+01 -0.2545028390E-16 -0.1508609119E+01  0.5876772862E+15  0.1580729101E+01 -0.2571510714E-16 -0.1512828384E+01
  0.8469889352E+00  0.1000000000E+01  0.3530110648E+00  0.1413731007E+01 -0.4359011230E-17 -0.1059058770E+01  0.5876772862E+15  0.1426418400E+01 -0.4001685763E-17 -0.1063863599E+01
  0.8000000000E+00  0.1000000000E+01  0.3530110648E+00  0.1068195804E+01 -0.2193237275E-18 -0.9370042498E+00  0.5876772862E+15  0.1083340643E+01 -0.2308527986E-18 -0.9429501022E+00
  0.1200000000E+01  0.1000000000E+01  0.4000000000E+00  0.2548313240E+01  0.3796817181E-17 -0.2142868948E+01  0.5876772862E+15  0.2555894353E+01  0.3812487990E-17 -0.2153799137E+01
  0.1153011065E+01  0.1000000000E+01  0.4000000000E+00  0.2355541678E+01 -0.1461931897E-17 -0.2254896123E+01  0.5876772862E+15  0.2364988514E+01 -0.1171144711E-17 -0.2264461662E+01
  0.1057046303E+01  0.1000000000E+01  0.4000000000E+00  0.1864302996E+01 -0.1703917339E-16 -0.1790717662E+01  0.5876772862E+15  0.1872909554E+01 -0.1693443612E-16 -0.1798961755E+01
  0.9429536967E+00  0.1000000000E+01  0.4000000000E+00  0.1461206270E+01 -0.2770405397E-16 -0.1695638580E+01  0.5876772862E+15  0.1470552542E+01 -0.2777089457E-16 -0.1702875796E+01
  0.8469889352E+00  0.1000000000E+01  0.4000000000E+00  0.1210347846E+01 -0.1686195655E-16 -0.1170846737E+01  0.5876772862E+15  0.1224477202E+01 -0.1678977319E-16 -0.1180008068E+01
  0.8000000000E+00  0.1000000000E+01  0.4000000000E+00  0.1068988234E+01 -0.1051701970E-16 -0.1088082912E+01  0.5876772862E+15  0.1084731488E+01 -0.1052283678E-16 -0.1098309348E+01
ZONE I=6, J=6, K=1, F=POINT
  0.1600000000E+01  0.1000000000E+01  0.0000000000E+00  0.1303825262E+00 -0.8580710691E-18 -0.7320487321E-01  0.5876772862E+15  0.1290225684E+00 -0.9817305754E-18 -0.7289567106E-01
  0.1553011065E+01  0.1000000000E+01  0.0000000000E+00  0.9824071018E-02 -0.1328013695E-17  0.4523193789E-01  0.5876772862E+15  0.9200246415E-02 -0.1332765355E-17  0.4505925932E-01
  0.1457046303E+01  0.1000000000E+01  0.0000000000E+00 -0.7965390490E-02 -0.6152048193E-19 -0.3299471198E-02  0.5876772862E+15 -0.8420025439E-02 -0.6692956969E-19 -0.3309231703E-02
  0.1342953697E+01  0.1000000000E+01  0.0000000000E+00  0.4914723513E-02  0.3962709433E-18  0.3007731980E-01  0.5876772862E+15  0.4591583473E-02  0.3792838528E-18  0.2999070510E-01
  0.1246988935E+01  0.1000000000E+01  0.0000000000E+00 -0.8156114076E-02  0.1152384653E-18 -0.8003926006E-02  0.5876772862E+15 -0.8220807015E-02  0.1097421377E-18 -0.8007943305E-02
  0.1200000000E+01  0.1000000000E+01  0.0000000000E+00  0.5765181470E-01  0.7305527836E-19  0.3703090028E-01  0.5876772862E+15  0.5776582905E-01  0.7466009717E-19  0.3691456854E-01
  0.1600000000E+01  0.1000000000E+01  0.4698893521E-01  0.2711518508E+01 -0.8830068023E-16  0.1839393460E+00  0.5876772862E+15  0.2708839253E+01 -0.8822330522E-16  0.2131349271E+00
  0.1553011065E+01  0.1000000000E+01  0.4698893521E-01  0.3123901462E+01 -0.4509530183E-16 -0.3129865540E+00  0.5876772862E+15  0.3124848983E+01 -0.4510386990E-16 -0.2862925929E+00
  0.1457046303E+01  0.1000000000E+01  0.4698893521E-01  0.2107083915E+01 -0.6328515434E-17 -0.9920377208E-01  0.5876772862E+15  0.2108023766E+01 -0.6314766626E-17 -0.7888120261E-01
  0.1342953697E+01  0.1000000000E+01  0.4698893521E-01  0.2106106030E+01  0.3183277540E-16 -0.5937196204E-01  0.5876772862E+15  0.2106467779E+01  0.3184207039E-16 -0.4230373152E-01
  0.1246988935E+01  0.1000000000E+01  0.4698893521E-01  0.1595362482E+01 -0.4077692891E-17 -0.5881109518E-02  0.5876772862E+15  0.1596996407E+01 -0.4020357622E-17  0.6924846102E-02
  0.1200000000E+01  0.1000000000E+01  0.4698893521E-01  0.2007815075E+01 -0.4554533232E-16 -0.1878102843E+00  0.5876772862E+15  0.2007558776E+01 -0.4555784137E-16 -0.1768526978E+00
  0.1600000000E+01  0.1000000000E+01  0.1429536967E+00  0.4906308955E+01 -0.2670330412E-15 -0.2072047946E+01  0.5876772862E+15  0.4892939479E+01 -0.2670442408E-15 -0.2043565323E+01
  0.1553011065E+01  0.1000000000E+01  0.1429536967E+00  0.6525579276E+01 -0.1595390984E-15 -0.1132437260E+01  0.5876772862E+15  0.6531702053E+01 -0.1600019338E-15 -0.1104344041E+01
  0.1457046303E+01  0.1000000000E+01  0.1429536967E+00  0.4428412651E+01  0.3127599663E-16 -0.9650513734E+00  0.5876772862E+15  0.4434440235E+01  0.3143406765E-16 -0.9381328351E+00
  0.1342953697E+01  0.1000000000E+01  0.1429536967E+00  0.4505042277E+01  0.1093086712E-15 -0.1294402676E+00  0.5876772862E+15  0.4509528373E+01  0.1094731156E-15 -0.1055868604E+00
  0.1246988935E+01  0.1000000000E+01  0.1429536967E+00  0.3347892034E+01  0.2988191440E-16 -0.5711320611E+00  0.5876772862E+15  0.3357047691E+01  0.2926351087E-16 -0.5519426197E+00
  0.1200000000E+01  0.1000000000E+01  0.1429536967E+00  0.4195102171E+01 -0.6115802815E-16 -0.4420101666E+00  0.5876772862E+15  0.4195905277E+01 -0.6118415961E-16 -0.4264492441E+00
  0.1600000000E+01  0.1000000000E+01  0.2570463033E+00  0.8399730242E+01  0.5255862813E-16 -0.4197949086E+01  0.5876772862E+15  0.8401930302E+01  0.5252869747E-16 -0.4201139485E+01
  0.1553011065E+01  0.1000000000E+01  0.2570463033E+00  0.7273608993E+01  0.7444815014E-16 -0.2822489266E+01  0.5876772862E+15  0.7279392139E+01  0.7442728846E-16 -0.2820282075E+01
  0.1457046303E+01  0.1000000000E+01  0.2570463033E+00  0.5932323641E+01  0.1660211070E-15 -0.2336925381E+01  0.5876772862E+15  0.5939309210E+01  0.1662367163E-15 -0.2332395360E+01
  0.1342953697E+01  0.1000000000E+01  0.2570463033E+00  0.4564591345E+01  0.1335312260E-15 -0.8880891014E+00  0.5876772862E+15  0.4574190164E+01  0.1339907623E-15 -0.8852521872E+00
  0.1246988935E+01  0.1000000000E+01  0.2570463033E+00  0.3617721977E+01  0.3844819712E-16 -0.1443116585E+01  0.5876772862E+15  0.3631152266E+01  0.3910201748E-16 -0.1440569589E+01
  0.1200000000E+01  0.1000000000E+01  0.2570463033E+00  0.3367431725E+01 -0.1702690880E-16 -0.1201216749E+01  0.5876772862E+15  0.3378983444E+01 -0.1700291391E-16 -0.1200822470E+01
  0.1600000000E+01  0.1000000000E+01  0.3530110648E+00  0.6152161291E+01  0.9769576902E-16 -0.4915935734E+01  0.5876772862E+15  0.6148392107E+01  0.9773528332E-16 -0.4926393400E+01
  0.1553011065E+01  0.1000000000E+01  0.3530110648E+00  0.6261583082E+01  0.1152922377E-15 -0.4399483936E+01  0.5876772862E+15  0.6266085197E+01  0.1153282625E-15 -0.4411787922E+01
  0.1457046303E+01  0.1000000000E+01  0.3530110648E+00  0.5094340462E+01  0.1436186772E-15 -0.3376888196E+01  0.5876772862E+15  0.5102750635E+01  0.1441676558E-15 -0.3390901226E+01
  0.1342953697E+01  0.1000000000E+01  0.3530110648E+00  0.4106458533E+01  0.1232575114E-15 -0.2122757474E+01  0.5876772862E+15  0.4116895214E+01  0.1236677434E-15 -0.2136885147E+01
  0.1246988935E+01  0.1000000000E+01  0.3530110648E+00  0.3020897046E+01  0.4030403161E-16 -0.2073032533E+01  0.5876772862E+15  0.3033532113E+01  0.4014224493E-16 -0.2086052235E+01
  0.1200000000E+01  0.1000000000E+01  0.3530110648E+00  0.3089834783E+01  0.6978390287E-17 -0.1999022986E+01  0.5876772862E+15  0.3098722135E+01  0.6980632261E-17 -0.2010219042E+01
  0.1600000000E+01  0.1000000000E+01  0.4000000000E+00  0.6141439950E+01  0.7715873860E-16 -0.5793992575E+01  0.5876772862E+15  0.6139028020E+01  0.7715406800E-16 -0.5814644049E+01
  0.1553011065E+01  0.1000000000E+01  0.4000000000E+00  0.5394645005E+01  0.1083417231E-15 -0.4478303930E+01  0.5876772862E+15  0.5401127381E+01  0.1084153447E-15 -0.4499010511E+01
  0.1457046303E+01  0.1000000000E+01  0.4000000000E+00  0.4785518229E+01  0.1149896630E-15 -0.3853671284E+01  0.5876772862E+15  0.4792744215E+01  0.1149483770E-15 -0.3869923869E+01
  0.1342953697E+01  0.1000000000E+01  0.4000000000E+00  0.3655119775E+01  0.1157406391E-15 -0.2396671540E+01  0.5876772862E+15  0.3666008670E+01  0.1161539656E-15 -0.2411005499E+01
  0.1246988935E+01  0.1000000000E+01  0.4000000000E+00  0.2937391884E+01  0.3020387714E-16 -0.2488911803E+01  0.5876772862E+15  0.2948455232E+01  0.3022633697E-16 -0.2501320424E+01
  0.1200000000E+01  0.1000000000E+01  0.4000000000E+00  0.2524443698E+01  0.4048039607E-17 -0.2133034655E+01  0.5876772862E+15  0.2532667852E+01  0.4053620290E-17 -0.2145373846E+01
ZONE I=6, J=6, K=1, F=POINT
  0.2000000000E+01  0.1000000000E+01  0.0000000000E+00  0.2402438676E+01  0.7088523262E-19  0.2123379068E+02  0.5876772862E+15  0.2430186895E+01  0.9288046230E-19  0.2215481287E+02
  0.1953011065E+01  0.1000000000E+01  0.0000000000E+00  0.1291853056E+01 -0.3726767642E-16 -0.1360251882E+00  0.5876772862E+15  0.1294620707E+01 -0.3602713916E-16 -0.1497011300E+00
  0.1857046303E+01  0.1000000000E+01  0.0000000000E+00 -0.3063079573E+00 -0.1880419009E-16  0.1531196810E+00  0.5876772862E+15 -0.3089062702E+00 -0.1940702636E-16  0.1512824391E+00
  0.1742953697E+01  0.1000000000E+01  0.0000000000E+00  0.1345439623E+00  0.3045744462E-18 -0.3880039000E-01  0.5876772862E+15  0.1336517072E+00  0.2218180787E-18 -0.3834808593E-01
  0.1646988935E+01  0.1000000000E+01  0.0000000000E+00 -0.1273427124E+00  0.4087365447E-18  0.6066685868E-01  0.5876772862E+15 -0.1285030368E+00  0.3727795774E-18  0.5970482480E-01
  0.1600000000E+01  0.1000000000E+01  0.0000000000E+00  0.8764741003E-01 -0.9361114105E-18 -0.8547968695E-01  0.5876772862E+15  0.8606059727E-01 -0.1062113912E-17 -0.8379781874E-01
  0.2000000000E+01  0.1000000000E+01  0.4698893521E-01 -0.1162168108E-01  0.7315127044E-18  0.4848378654E+02  0.5876772862E+15 -0.5429752549E-01  0.6803562065E-18  0.4865707138E+02
  0.1953011065E+01  0.1000000000E+01  0.4698893521E-01  0.1101582504E+02  0.1465492315E-15  0.1520432365E+01  0.5876772862E+15  0.1099899295E+02  0.1452624455E-15  0.1537226718E+01
  0.1857046303E+01  0.1000000000E+01  0.4698893521E-01  0.1184792416E+02  0.3234394350E-15 -0.1867396250E+01  0.5876772862E+15  0.1184399899E+02  0.3232778547E-15 -0.1856984573E+01
  0.1742953697E+01  0.1000000000E+01  0.4698893521E-01  0.5811079272E+01 -0.9522861430E-18 -0.7238492900E+00  0.5876772862E+15  0.5809367267E+01 -0.6070412739E-18 -0.7068594640E+00
  0.1646988935E+01  0.1000000000E+01  0.4698893521E-01  0.4239689930E+01 -0.1130303879E-15 -0.6951276422E+00  0.5876772862E+15  0.4233533618E+01 -0.1129134220E-15 -0.6656532909E+00
  0.1600000000E+01  0.1000000000E+01  0.4698893521E-01  0.2548664078E+01 -0.8541772580E-16  0.1694741755E+00  0.5876772862E+15  0.2555244678E+01 -0.8514820222E-16  0.1934566910E+00
  0.2000000000E+01  0.1000000000E+01  0.1429536967E+00 -0.2811479171E+00  0.2506060672E-17  0.5050413845E+02  0.5876772862E+15 -0.2569254669E+00  0.2499388800E-17  0.5043898546E+02
  0.1953011065E+01  0.1000000000E+01  0.1429536967E+00  0.2806122431E+01 -0.5083344383E-15  0.1658672926E+02  0.5876772862E+15  0.2780152782E+01 -0.5094688400E-15  0.1662299192E+02
  0.1857046303E+01  0.1000000000E+01  0.1429536967E+00  0.1257222790E+02 -0.2444537262E-15 -0.3725746840E+01  0.5876772862E+15  0.1255432933E+02 -0.2435928787E-15 -0.3709981334E+01
  0.1742953697E+01  0.1000000000E+01  0.1429536967E+00  0.9219501229E+01  0.7959867343E-16 -0.4606432508E+01  0.5876772862E+15  0.9208224565E+01  0.7762685795E-16 -0.4588183609E+01
  0.1646988935E+01  0.1000000000E+01  0.1429536967E+00  0.8073375002E+01 -0.1345576819E-15 -0.2455700057E+01  0.5876772862E+15  0.8062020977E+01 -0.1344559714E-15 -0.2428941085E+01
  0.1600000000E+01  0.1000000000E+01  0.1429536967E+00  0.4541256598E+01 -0.2831232729E-15 -0.2070620378E+01  0.5876772862E+15  0.4562787611E+01 -0.2836815088E-15 -0.2047831772E+01
  0.2000000000E+01  0.1000000000E+01  0.2570463033E+00  0.1698637581E-01  0.1044018191E-17  0.4987229150E+02  0.5876772862E+15  0.1634896162E-01  0.9612121762E-18  0.4987589586E+02