TITLE = "Generated from ../MESH/Convergence_0000000000.hmesh and Convergence_0000005900.hsol"
VARIABLES = "x","y","z","veloT_x","veloT_y","veloT_z","slr_4","velo_x","velo_y","velo_z"
ZONE I=6, J=6, K=1, F=POINT
  0.4000000000E+00  0.1000000000E+01  0.0000000000E+00 -0.1199121554E-01  0.2766722770E-19  0.7250659102E-02  0.6622862699E+15 -0.1183609998E-01  0.2747405743E-19  0.7160122595E-02
  0.3530110648E+00  0.1000000000E+01  0.0000000000E+00 -0.1918736053E-02  0.8862567317E-20 -0.4459448213E-03  0.6622862699E+15 -0.1369841114E-02  0.9126653557E-20 -0.4363608627E-03
  0.2570463033E+00  0.1000000000E+01  0.0000000000E+00 -0.6457479918E-03  0.1468992147E-20  0.2450468402E-02  0.6622862699E+15 -0.2098331760E-03  0.1601648639E-20  0.2455798118E-02
  0.1429536967E+00  0.1000000000E+01  0.0000000000E+00 -0.1689511238E-02  0.3471953625E-21 -0.1112881138E-02  0.6622862699E+15 -0.1244513310E-02  0.4010898230E-21 -0.1084549251E-02
  0.4698893521E-01  0.1000000000E+01  0.0000000000E+00  0.1118683737E-02 -0.2495464849E-20  0.1941286472E-02  0.6622862699E+15  0.1626158359E-02 -0.2553023867E-20  0.1909162295E-02
  0.0000000000E+00  0.1000000000E+01  0.0000000000E+00 -0.7564504381E-02  0.1471494942E-22  0.2111844041E-02  0.6622862699E+15 -0.7554761786E-02  0.1586745886E-22  0.2048534645E-02
  0.4000000000E+00  0.1000000000E+01  0.4698893521E-01  0.2689610314E+00  0.3238154566E-17 -0.4635946740E-01  0.6622862699E+15  0.2680790781E+00  0.3243770272E-17 -0.6434083537E-01
  0.3530110648E+00  0.1000000000E+01  0.4698893521E-01  0.1262710457E+00  0.2943838315E-17 -0.8498784071E-02  0.6622862699E+15  0.1233843263E+00  0.2992541525E-17 -0.2355391771E-01
  0.2570463033E+00  0.1000000000E+01  0.4698893521E-01  0.9660636655E-01  0.1235240724E-17 -0.1805800279E-01  0.6622862699E+15  0.9381893407E-01  0.1230443182E-17 -0.2391036202E-01
  0.1429536967E+00  0.1000000000E+01  0.4698893521E-01  0.1479651703E-02  0.3658536157E-18 -0.1004242918E-01  0.6622862699E+15  0.5825745788E-03  0.3631803645E-18 -0.1051511302E-01
  0.4698893521E-01  0.1000000000E+01  0.4698893521E-01 -0.3979394757E-02  0.8732797821E-19 -0.7218542771E-02  0.6622862699E+15 -0.4100326633E-02  0.8702548056E-19 -0.6957156036E-02
  0.0000000000E+00  0.1000000000E+01  0.4698893521E-01 -0.1816598966E-01  0.9301900154E-21  0.3028344141E-02  0.6622862699E+15 -0.1816344009E-01  0.1051286068E-20  0.2654781524E-02
  0.4000000000E+00  0.1000000000E+01  0.1429536967E+00  0.6158692749E+00  0.1032082065E-16 -0.1390839381E+00  0.6622862699E+15  0.6127599980E+00  0.1027969903E-16 -0.1513227618E+00
  0.3530110648E+00  0.1000000000E+01  0.1429536967E+00  0.3464015406E+00  0.6640837766E-17 -0.1742583333E+00  0.6622862699E+15  0.3364638780E+00  0.6722065194E-17 -0.1852742476E+00
  0.2570463033E+00  0.1000000000E+01  0.1429536967E+00  0.2377010721E+00  0.2874867810E-17 -0.1078561655E+00  0.6622862699E+15  0.2274030472E+00  0.2868135614E-17 -0.1146352313E+00
  0.1429536967E+00  0.1000000000E+01  0.1429536967E+00  0.3482778942E-01  0.1162556837E-17 -0.1135644392E+00  0.6622862699E+15  0.3107298194E-01  0.1161684907E-17 -0.1150865343E+00
  0.4698893521E-01  0.1000000000E+01  0.1429536967E+00 -0.9706528973E-02  0.3020706392E-18 -0.6921082384E-02  0.6622862699E+15 -0.1028790798E-01  0.3013539942E-18 -0.6728478770E-02
  0.0000000000E+00  0.1000000000E+01  0.1429536967E+00 -0.2139401676E-01  0.6796347748E-22 -0.4131428951E-03  0.6622862699E+15 -0.2129778121E-01  0.4316407730E-21 -0.9452613314E-03
  0.4000000000E+00  0.1000000000E+01  0.2570463033E+00  0.7478468055E+00  0.4810857179E-17 -0.4356455879E+00  0.6622862699E+15  0.7430945119E+00  0.4805278989E-17 -0.4309067296E+00
  0.3530110648E+00  0.1000000000E+01  0.2570463033E+00  0.5469975534E+00  0.3524576652E-17 -0.4715859660E+00  0.6622862699E+15  0.5382100531E+00  0.3583476259E-17 -0.4675469452E+00
  0.2570463033E+00  0.1000000000E+01  0.2570463033E+00  0.3282984668E+00  0.2746995772E-17 -0.3272161551E+00  0.6622862699E+15  0.3165527873E+00  0.2746571883E-17 -0.3256372649E+00
  0.1429536967E+00  0.1000000000E+01  0.2570463033E+00  0.9137721048E-01  0.1922104880E-17 -0.2899039094E+00  0.6622862699E+15  0.8541832016E-01  0.1922293572E-17 -0.2883631098E+00
  0.4698893521E-01  0.1000000000E+01  0.2570463033E+00  0.4518065876E-02  0.1216511217E-17 -0.4768522351E-01  0.6622862699E+15  0.4835618022E-02  0.1218944835E-17 -0.4749319288E-01
  0.0000000000E+00  0.1000000000E+01  0.2570463033E+00 -0.1430470318E-01 -0.4574047289E-20 -0.2397264456E-03  0.6622862699E+15 -0.1420462190E-01 -0.4639063711E-20 -0.9854458244E-03
  0.4000000000E+00  0.1000000000E+01  0.3530110648E+00  0.8183953761E+00  0.5335563363E-17 -0.7610466366E+00  0.6622862699E+15  0.8143766687E+00  0.5342618687E-17 -0.7556685013E+00
  0.3530110648E+00  0.1000000000E+01  0.3530110648E+00  0.5983217310E+00  0.4688218827E-17 -0.7538346906E+00  0.6622862699E+15  0.5916636034E+00  0.4692259966E-17 -0.7498014528E+00
  0.2570463033E+00  0.1000000000E+01  0.3530110648E+00  0.3513137295E+00  0.2896295643E-17 -0.5676390366E+00  0.6622862699E+15  0.3405425060E+00  0.2852035557E-17 -0.5646832707E+00
  0.1429536967E+00  0.1000000000E+01  0.3530110648E+00  0.9308998970E-01  0.2413140110E-17 -0.4429263375E+00  0.6622862699E+15  0.8851713178E-01  0.2397788886E-17 -0.4412187187E+00
  0.4698893521E-01  0.1000000000E+01  0.3530110648E+00  0.4700752289E-02  0.7033394474E-18 -0.1125003835E+00  0.6622862699E+15  0.7378814346E-02  0.7032200882E-18 -0.1124705905E+00
  0.0000000000E+00  0.1000000000E+01  0.3530110648E+00 -0.1439807358E-01  0.5008930524E-20 -0.3037319818E-03  0.6622862699E+15 -0.1429455801E-01  0.4901265299E-20 -0.1275276421E-02
  0.4000000000E+00  0.1000000000E+01  0.4000000000E+00  0.8115144881E+00  0.7329283122E-17 -0.9353388971E+00  0.6622862699E+15  0.8101132540E+00  0.7320075158E-17 -0.9296566167E+00
  0.3530110648E+00  0.1000000000E+01  0.4000000000E+00  0.6377260000E+00  0.6397902586E-17 -0.9121057053E+00  0.6622862699E+15  0.6328892466E+00  0.6413384325E-17 -0.9101434329E+00
  0.2570463033E+00  0.1000000000E+01  0.4000000000E+00  0.3552813577E+00  0.2659195290E-17 -0.6908466181E+00  0.6622862699E+15  0.3452759188E+00  0.2619259403E-17 -0.6936752699E+00
  0.1429536967E+00  0.1000000000E+01  0.4000000000E+00  0.1010202952E+00  0.2442658930E-17 -0.5228119472E+00  0.6622862699E+15  0.9647454535E-01  0.2424030530E-17 -0.5262888574E+00
  0.4698893521E-01  0.1000000000E+01  0.4000000000E+00  0.2785854238E-03  0.6889252894E-18 -0.1438825708E+00  0.6622862699E+15  0.3059369194E-02  0.6923801297E-18 -0.1450965834E+00
  0.0000000000E+00  0.1000000000E+01  0.4000000000E+00 -0.6828370400E-02  0.8578183441E-20 -0.2069924213E-02  0.6622862699E+15 -0.6277623342E-02  0.8604750944E-20 -0.2949964718E-02
ZONE I=6, J=6, K=1, F=POINT
  0.8000000000E+00  0.1000000000E+01  0.0000000000E+00  0.1831912306E-01 -0.8459177700E-19 -0.1171223129E-01  0.6622862699E+15  0.1730989829E-01 -0.8739225113E-19 -0.1127884110E-01
  0.7530110648E+00  0.1000000000E+01  0.0000000000E+00  0.2492125884E-02  0.9096362727E-19  0.5957539710E-02  0.6622862699E+15  0.1781666622E-02  0.7466177269E-19  0.6172304333E-02
  0.6570463033E+00  0.1000000000E+01  0.0000000000E+00 -0.4000290476E-03  0.2332405285E-19  0.2206044801E-03  0.6622862699E+15 -0.5981376183E-03  0.2148063143E-19  0.3464968975E-03
  0.5429536967E+00  0.1000000000E+01  0.0000000000E+00  0.7850372106E-03  0.2578110073E-19  0.6978724760E-02  0.6622862699E+15  0.8620080745E-03  0.2836176432E-19  0.7000425756E-02
  0.4469889352E+00  0.1000000000E+01  0.0000000000E+00 -0.1842364739E-02 -0.3493268913E-19  0.4139387610E-03  0.6622862699E+15 -0.1680947225E-02 -0.2927038724E-19  0.4663364592E-03
  0.4000000000E+00  0.1000000000E+01  0.0000000000E+00  0.1472299361E-01  0.3131342407E-19  0.6930240456E-02  0.6622862699E+15  0.1495224857E-01  0.3114153453E-19  0.6840220812E-02
  0.8000000000E+00  0.1000000000E+01  0.4698893521E-01  0.3692406285E+00 -0.2302010785E-16  0.5873799114E-02  0.6622862699E+15  0.3670568221E+00 -0.2299069464E-16 -0.4032938674E-02
  0.7530110648E+00  0.1000000000E+01  0.4698893521E-01  0.5579189453E+00 -0.2257461728E-16 -0.5337488977E-01  0.6622862699E+15  0.5570995355E+00 -0.2251415518E-16 -0.6301432169E-01
  0.6570463033E+00  0.1000000000E+01  0.4698893521E-01  0.3262479767E+00 -0.4140438879E-17 -0.2197796869E-01  0.6622862699E+15  0.3263444887E+00 -0.4155847391E-17 -0.3248448224E-01
  0.5429536967E+00  0.1000000000E+01  0.4698893521E-01  0.3458306314E+00  0.4568042387E-17 -0.1099629817E-01  0.6622862699E+15  0.3470797189E+00  0.4581584682E-17 -0.2410766314E-01
  0.4469889352E+00  0.1000000000E+01  0.4698893521E-01  0.2097068797E+00  0.4189568779E-17 -0.3272263191E-02  0.6622862699E+15  0.2111067486E+00  0.4196118346E-17 -0.2069605154E-01
  0.4000000000E+00  0.1000000000E+01  0.4698893521E-01  0.3109147183E+00  0.2997427649E-17 -0.4711524949E-01  0.6622862699E+15  0.3103146069E+00  0.3001587702E-17 -0.6508923138E-01
  0.8000000000E+00  0.1000000000E+01  0.1429536967E+00  0.1195672062E+01 -0.5184347481E-16 -0.3828664659E+00  0.6622862699E+15  0.1189764586E+01 -0.5199288008E-16 -0.4008847459E+00
  0.7530110648E+00  0.1000000000E+01  0.1429536967E+00  0.1470225245E+01 -0.3229694693E-16 -0.2385266915E+00  0.6622862699E+15  0.1467348487E+01 -0.3217725637E-16 -0.2541089905E+00
  0.6570463033E+00  0.1000000000E+01  0.1429536967E+00  0.9909748355E+00 -0.2417143830E-17 -0.2331184168E+00  0.6622862699E+15  0.9905224702E+00 -0.2403345507E-17 -0.2444750470E+00
  0.5429536967E+00  0.1000000000E+01  0.1429536967E+00  0.8854770924E+00  0.1037176590E-16 -0.8501591767E-01  0.6622862699E+15  0.8899692838E+00  0.1049430774E-16 -0.9561879908E-01
  0.4469889352E+00  0.1000000000E+01  0.1429536967E+00  0.5589300903E+00  0.1031362823E-16 -0.1639044562E+00  0.6622862699E+15  0.5633768314E+00  0.1034078826E-16 -0.1762364606E+00
  0.4000000000E+00  0.1000000000E+01  0.1429536967E+00  0.6670202077E+00  0.1102556671E-16 -0.1385304928E+00  0.6622862699E+15  0.6641316837E+00  0.1099162309E-16 -0.1507773375E+00
  0.8000000000E+00  0.1000000000E+01  0.2570463033E+00  0.2343082740E+01 -0.1056107076E-16 -0.9985027205E+00  0.6622862699E+15  0.2329642837E+01 -0.1058935820E-16 -0.1019683207E+01
  0.7530110648E+00  0.1000000000E+01  0.2570463033E+00  0.2179270985E+01 -0.7097076515E-17 -0.7425674801E+00  0.6622862699E+15  0.2166739951E+01 -0.7263773559E-17 -0.7587540012E+00
  0.6570463033E+00  0.1000000000E+01  0.2570463033E+00  0.1640169178E+01 -0.1765811417E-17 -0.6714519392E+00  0.6622862699E+15  0.1634363135E+01 -0.1598489548E-17 -0.6793289024E+00
  0.5429536967E+00  0.1000000000E+01  0.2570463033E+00  0.1229611910E+01  0.4156410791E-17 -0.3993310384E+00  0.6622862699E+15  0.1231963654E+01  0.4196963876E-17 -0.4025308669E+00
  0.4469889352E+00  0.1000000000E+01  0.2570463033E+00  0.8503266607E+00  0.4679782573E-17 -0.4908132932E+00  0.6622862699E+15  0.8515321186E+00  0.4718724466E-17 -0.4879941406E+00
  0.4000000000E+00  0.1000000000E+01  0.2570463033E+00  0.7783909455E+00  0.4837111742E-17 -0.4349781128E+00  0.6622862699E+15  0.7742370226E+00  0.4830772292E-17 -0.4302882045E+00
  0.8000000000E+00  0.1000000000E+01  0.3530110648E+00  0.2676034348E+01  0.4230187346E-17 -0.1571064218E+01  0.6622862699E+15  0.2653602104E+01  0.4265050551E-17 -0.1589877706E+01
  0.7530110648E+00  0.1000000000E+01  0.3530110648E+00  0.2526359245E+01  0.9265904556E-17 -0.1344768135E+01  0.6622862699E+15  0.2502676110E+01  0.7920253207E-17 -0.1358198342E+01
  0.6570463033E+00  0.1000000000E+01  0.3530110648E+00  0.1918923647E+01  0.1357935106E-17 -0.1147769831E+01  0.6622862699E+15  0.1907863824E+01  0.1803395321E-17 -0.1152158857E+01
  0.5429536967E+00  0.1000000000E+01  0.3530110648E+00  0.1406488025E+01  0.5291399155E-18 -0.8168736122E+00  0.6622862699E+15  0.1404312474E+01  0.6666605254E-18 -0.8166526786E+00
  0.4469889352E+00  0.1000000000E+01  0.3530110648E+00  0.9255384557E+00  0.5356409261E-17 -0.8241328694E+00  0.6622862699E+15  0.9204951758E+00  0.5299613829E-17 -0.8196893431E+00
  0.4000000000E+00  0.1000000000E+01  0.3530110648E+00  0.8513159185E+00  0.5313393607E-17 -0.7608309330E+00  0.6622862699E+15  0.8473485950E+00  0.5316203005E-17 -0.7554533080E+00
  0.8000000000E+00  0.1000000000E+01  0.4000000000E+00  0.2818481918E+01 -0.1864042419E-17 -0.1908964403E+01  0.6622862699E+15  0.2792095502E+01 -0.1864158055E-17 -0.1920925053E+01
  0.7530110648E+00  0.1000000000E+01  0.4000000000E+00  0.2537026329E+01  0.1301034440E-17 -0.1623958092E+01  0.6622862699E+15  0.2507813082E+01  0.1161385052E-17 -0.1630694652E+01
  0.6570463033E+00  0.1000000000E+01  0.4000000000E+00  0.1969614120E+01  0.2055178443E-17 -0.1418939682E+01  0.6622862699E+15  0.1954957978E+01  0.1938699018E-17 -0.1413823865E+01
  0.5429536967E+00  0.1000000000E+01  0.4000000000E+00  0.1418789028E+01  0.7609809919E-17 -0.1091148587E+01  0.6622862699E+15  0.1415659710E+01  0.7720761948E-17 -0.1080611726E+01
  0.4469889352E+00  0.1000000000E+01  0.4000000000E+00  0.9936334563E+00  0.8147054072E-17 -0.1032212263E+01  0.6622862699E+15  0.9883717149E+00  0.7949995985E-17 -0.1023536094E+01
  0.4000000000E+00  0.1000000000E+01  0.4000000000E+00  0.8229876004E+00  0.7350313522E-17 -0.9345552854E+00  0.6622862699E+15  0.8211431537E+00  0.7342350914E-17 -0.9289613651E+00
ZONE I=6, J=6, K=1, F=POINT
  0.1200000000E+01  0.1000000000E+01  0.0000000000E+00 -0.2995925107E-01  0.5789976589E-19  0.3610049288E-01  0.6622862699E+15 -0.3186094823E-01  0.5913454561E-19  0.3637039622E-01
  0.1153011065E+01  0.1000000000E+01  0.0000000000E+00 -0.3272209468E-02 -0.1433344782E-18 -0.9816119288E-02  0.6622862699E+15 -0.5163269482E-02 -0.2278547815E-18 -0.9657901375E-02
  0.1057046303E+01  0.1000000000E+01  0.0000000000E+00  0.3675008152E-02  0.5880854115E-19  0.5891385205E-02  0.6622862699E+15  0.1966921508E-02  0.1441004479E-19  0.6001187384E-02
  0.9429536967E+00  0.1000000000E+01  0.0000000000E+00 -0.1146752527E-02  0.4551788238E-20 -0.8397097468E-02  0.6622862699E+15 -0.2605084237E-02  0.4285211819E-20 -0.8319378693E-02
  0.8469889352E+00  0.1000000000E+01  0.0000000000E+00  0.3870049322E-02 -0.2372005672E-19  0.5316236708E-02  0.6622862699E+15  0.2838547748E-02 -0.2241659042E-19  0.5452777655E-02
  0.8000000000E+00  0.1000000000E+01  0.0000000000E+00 -0.2702339277E-01 -0.9412680211E-19 -0.1120283776E-01  0.6622862699E+15 -0.2786562955E-01 -0.9718156283E-19 -0.1075794369E-01
  0.1200000000E+01  0.1000000000E+01  0.4698893521E-01  0.2285246356E+01 -0.4213528544E-16 -0.2112216906E+00  0.6622862699E+15  0.2284723330E+01 -0.4207946978E-16 -0.2225170992E+00
  0.1153011065E+01  0.1000000000E+01  0.4698893521E-01  0.1588466141E+01 -0.2597495192E-16 -0.6508732475E-01  0.6622862699E+15  0.1587001158E+01 -0.2591127013E-16 -0.7667471522E-01
  0.1057046303E+01  0.1000000000E+01  0.4698893521E-01  0.1439481102E+01 -0.1169469560E-16 -0.9605858485E-01  0.6622862699E+15  0.1437685351E+01 -0.1173512848E-16 -0.1089586510E+00
  0.9429536967E+00  0.1000000000E+01  0.4698893521E-01  0.8170373395E+00 -0.1418354944E-16 -0.8275087735E-01  0.6622862699E+15  0.8146043945E+00 -0.1411906175E-16 -0.9555163443E-01
  0.8469889352E+00  0.1000000000E+01  0.4698893521E-01  0.7035155364E+00 -0.2715765347E-16 -0.8045008087E-01  0.6622862699E+15  0.7008100850E+00 -0.2702646809E-16 -0.9121716688E-01
  0.8000000000E+00  0.1000000000E+01  0.4698893521E-01  0.3082802383E+00 -0.2232266414E-16  0.7936745191E-02  0.6622862699E+15  0.3064468469E+00 -0.2230193801E-16 -0.2009307599E-02
  0.1200000000E+01  0.1000000000E+01  0.1429536967E+00  0.5333045277E+01 -0.5793277391E-16 -0.6398392569E+00  0.6622862699E+15  0.5338919785E+01 -0.5795985755E-16 -0.6586015836E+00
  0.1153011065E+01  0.1000000000E+01  0.1429536967E+00  0.3864099992E+01 -0.6654996121E-16 -0.8492623531E+00  0.6622862699E+15  0.3865639925E+01 -0.6638164663E-16 -0.8698342010E+00
  0.1057046303E+01  0.1000000000E+01  0.1429536967E+00  0.3449687780E+01 -0.3680350361E-16 -0.6359814607E+00  0.6622862699E+15  0.3449480911E+01 -0.3682318043E-16 -0.6590138539E+00
  0.9429536967E+00  0.1000000000E+01  0.1429536967E+00  0.2156208304E+01 -0.3237109386E-16 -0.7453751440E+00  0.6622862699E+15  0.2152552132E+01 -0.3237830842E-16 -0.7687824376E+00
  0.8469889352E+00  0.1000000000E+01  0.1429536967E+00  0.1842727234E+01 -0.4858139265E-16 -0.3998715372E+00  0.6622862699E+15  0.1836459580E+01 -0.4833943500E-16 -0.4204216761E+00
  0.8000000000E+00  0.1000000000E+01  0.1429536967E+00  0.1112009542E+01 -0.5405459791E-16 -0.3845141156E+00  0.6622862699E+15  0.1107956974E+01 -0.5421515236E-16 -0.4025042708E+00
  0.1200000000E+01  0.1000000000E+01  0.2570463033E+00  0.5764556994E+01 -0.5556704824E-17 -0.1783278416E+01  0.6622862699E+15  0.5771538609E+01 -0.5503481858E-17 -0.1805137802E+01
  0.1153011065E+01  0.1000000000E+01  0.2570463033E+00  0.5215869693E+01 -0.3715093693E-16 -0.2039313115E+01  0.6622862699E+15  0.5220861724E+01 -0.3794240352E-16 -0.2063467995E+01
  0.1057046303E+01  0.1000000000E+01  0.2570463033E+00  0.4342803036E+01 -0.2912851857E-16 -0.1656077715E+01  0.6622862699E+15  0.4344805833E+01 -0.2912833042E-16 -0.1681995289E+01
  0.9429536967E+00  0.1000000000E+01  0.2570463033E+00  0.3324510371E+01 -0.2832449556E-16 -0.1707057559E+01  0.6622862699E+15  0.3319795542E+01 -0.2804103221E-16 -0.1733494526E+01
  0.8469889352E+00  0.1000000000E+01  0.2570463033E+00  0.2732074308E+01 -0.1138832697E-16 -0.1073640133E+01  0.6622862699E+15  0.2720396368E+01 -0.1210175117E-16 -0.1098073242E+01
  0.8000000000E+00  0.1000000000E+01  0.2570463033E+00  0.2305016371E+01 -0.1072912676E-16 -0.1001132576E+01  0.6622862699E+15  0.2292081011E+01 -0.1074477815E-16 -0.1021892614E+01
  0.1200000000E+01  0.1000000000E+01  0.3530110648E+00  0.6177100505E+01  0.3289447793E-16 -0.2966683315E+01  0.6622862699E+15  0.6186608589E+01  0.3291535831E-16 -0.2989721218E+01
  0.1153011065E+01  0.1000000000E+01  0.3530110648E+00  0.5435793108E+01  0.1418418415E-16 -0.2909889470E+01  0.6622862699E+15  0.5442070491E+01  0.1410850090E-16 -0.2932635675E+01
  0.1057046303E+01  0.1000000000E+01  0.3530110648E+00  0.4668427954E+01 -0.5695917135E-17 -0.2559872846E+01  0.6622862699E+15  0.4671392114E+01 -0.5378608411E-17 -0.2582299058E+01
  0.9429536967E+00  0.1000000000E+01  0.3530110648E+00  0.3665448894E+01 -0.1265001823E-16 -0.2366241953E+01  0.6622862699E+15  0.3660743659E+01 -0.1227280530E-16 -0.2390002533E+01
  0.8469889352E+00  0.1000000000E+01  0.3530110648E+00  0.3138397715E+01  0.1962309295E-17 -0.1759712897E+01  0.6622862699E+15  0.3122310978E+01  0.1682014185E-17 -0.1781807397E+01
  0.8000000000E+00  0.1000000000E+01  0.3530110648E+00  0.2629175343E+01  0.4280465163E-17 -0.1571356813E+01  0.6622862699E+15  0.2607750767E+01  0.4316930309E-17 -0.1590209092E+01
  0.1200000000E+01  0.1000000000E+01  0.4000000000E+00  0.5946350537E+01  0.3787320496E-16 -0.3290074796E+01  0.6622862699E+15  0.5954752659E+01  0.3786744115E-16 -0.3305834694E+01
  0.1153011065E+01  0.1000000000E+01  0.4000000000E+00  0.5565420858E+01  0.2974360514E-16 -0.3426525790E+01  0.6622862699E+15  0.5570237341E+01  0.2987143086E-16 -0.3442121818E+01
  0.1057046303E+01  0.1000000000E+01  0.4000000000E+00  0.4658712405E+01  0.5118553015E-17 -0.2963038100E+01  0.6622862699E+15  0.4662223836E+01  0.5099978760E-17 -0.2977295525E+01
  0.9429536967E+00  0.1000000000E+01  0.4000000000E+00  0.3777118491E+01 -0.1202306593E-16 -0.2748565261E+01  0.6622862699E+15  0.3772790585E+01 -0.1197756855E-16 -0.2765769428E+01
  0.8469889352E+00  0.1000000000E+01  0.4000000000E+00  0.3133727901E+01 -0.6206075283E-17 -0.2062531634E+01  0.6622862699E+15  0.3115195569E+01 -0.6341470858E-17 -0.2078373766E+01
  0.8000000000E+00  0.1000000000E+01  0.4000000000E+00  0.2814268349E+01 -0.1848205166E-17 -0.1912368026E+01  0.6622862699E+15  0.2788141471E+01 -0.1846772489E-17 -0.1923919654E+01
ZONE I=6, J=6, K=1, F=POINT
  0.1600000000E+01  0.1000000000E+01  0.0000000000E+00  0.1330193125E+00 -0.9319500992E-18 -0.7230239171E-01  0.6622862699E+15  0.1294366943E+00 -0.1046663076E-17 -0.7164035528E-01
  0.1553011065E+01  0.1000000000E+01  0.0000000000E+00  0.1266641810E-01 -0.1425178439E-17  0.4503413680E-01  0.6622862699E+15  0.1022687097E-01 -0.1333935019E-17  0.4508533252E-01
  0.1457046303E+01  0.1000000000E+01  0.0000000000E+00 -0.5291926602E-02 -0.1439448164E-18 -0.3244561479E-02  0.6622862699E+15 -0.7324806680E-02 -0.1113086301E-18 -0.3186597105E-02
  0.1342953697E+01  0.1000000000E+01  0.0000000000E+00  0.7149644717E-02  0.5072935297E-18  0.2966092962E-01  0.6622862699E+15  0.5344073274E-02  0.4081179184E-18  0.2963542055E-01
  0.1246988935E+01  0.1000000000E+01  0.0000000000E+00 -0.5984181000E-02  0.1360566111E-18 -0.8327961895E-02  0.6622862699E+15 -0.7657327953E-02  0.1259257429E-18 -0.8211476665E-02
  0.1200000000E+01  0.1000000000E+01  0.0000000000E+00  0.5946502776E-01  0.6260736238E-19  0.3611842305E-01  0.6622862699E+15  0.5757196448E-01  0.6370985671E-19  0.3637842393E-01
  0.1600000000E+01  0.1000000000E+01  0.4698893521E-01  0.3003375405E+01 -0.8757448432E-16  0.2226515235E+00  0.6622862699E+15  0.2997846804E+01 -0.8745638642E-16  0.2243507491E+00
  0.1553011065E+01  0.1000000000E+01  0.4698893521E-01  0.3516296379E+01 -0.4324307611E-16 -0.2791170385E+00  0.6622862699E+15  0.3516045352E+01 -0.4325304071E-16 -0.2788990324E+00
  0.1457046303E+01  0.1000000000E+01  0.4698893521E-01  0.2575911054E+01 -0.4339256277E-17 -0.8733405306E-01  0.6622862699E+15  0.2576809441E+01 -0.4368137463E-17 -0.9197678980E-01
  0.1342953697E+01  0.1000000000E+01  0.4698893521E-01  0.2596791413E+01  0.2862410046E-16 -0.6312976718E-01  0.6622862699E+15  0.2596687272E+01  0.2861751517E-16 -0.7134588293E-01
  0.1246988935E+01  0.1000000000E+01  0.4698893521E-01  0.2020325530E+01 -0.6864463250E-17 -0.3732358428E-01  0.6622862699E+15  0.2020176769E+01 -0.6858688818E-17 -0.4775179528E-01
  0.1200000000E+01  0.1000000000E+01  0.4698893521E-01  0.2384347322E+01 -0.4637871938E-16 -0.2169323353E+00  0.6622862699E+15  0.2381534367E+01 -0.4628534867E-16 -0.2278262196E+00
  0.1600000000E+01  0.1000000000E+01  0.1429536967E+00  0.6430747270E+01 -0.2659682468E-15 -0.1745651380E+01  0.6622862699E+15  0.6408649650E+01 -0.2662727612E-15 -0.1748043836E+01
  0.1553011065E+01  0.1000000000E+01  0.1429536967E+00  0.8151322638E+01 -0.1412356694E-15 -0.9102021680E+00  0.6622862699E+15  0.8154511494E+01 -0.1414947550E-15 -0.9126159692E+00
  0.1457046303E+01  0.1000000000E+01  0.1429536967E+00  0.6154038102E+01  0.3110400028E-16 -0.9019175420E+00  0.6622862699E+15  0.6160861362E+01  0.3134300935E-16 -0.9088844482E+00
  0.1342953697E+01  0.1000000000E+01  0.1429536967E+00  0.6156032729E+01  0.1003167495E-15 -0.2038657211E+00  0.6622862699E+15  0.6159489576E+01  0.1004522485E-15 -0.2169825515E+00
  0.1246988935E+01  0.1000000000E+01  0.1429536967E+00  0.4790050538E+01  0.2613624781E-16 -0.7669431072E+00  0.6622862699E+15  0.4793877135E+01  0.2609150077E-16 -0.7835273901E+00
  0.1200000000E+01  0.1000000000E+01  0.1429536967E+00  0.5499911595E+01 -0.6208465109E-16 -0.6342709467E+00  0.6622862699E+15  0.5494880385E+01 -0.6199851945E-16 -0.6538089355E+00
  0.1600000000E+01  0.1000000000E+01  0.2570463033E+00  0.1146991466E+02  0.1054638955E-15 -0.3494992850E+01  0.6622862699E+15  0.1147027401E+02  0.1053800897E-15 -0.3506280721E+01
  0.1553011065E+01  0.1000000000E+01  0.2570463033E+00  0.1042113071E+02  0.1277507266E-15 -0.2414812562E+01  0.6622862699E+15  0.1042944158E+02  0.1275484456E-15 -0.2421804764E+01
  0.1457046303E+01  0.1000000000E+01  0.2570463033E+00  0.9108531910E+01  0.1841122170E-15 -0.2318567830E+01  0.6622862699E+15  0.9122112947E+01  0.1847941488E-15 -0.2330072724E+01
  0.1342953697E+01  0.1000000000E+01  0.2570463033E+00  0.7507359276E+01  0.1315849775E-15 -0.1231383650E+01  0.6622862699E+15  0.7518044156E+01  0.1321829417E-15 -0.1249500789E+01
  0.1246988935E+01  0.1000000000E+01  0.2570463033E+00  0.6250231162E+01  0.4279114241E-16 -0.2005975782E+01  0.6622862699E+15  0.6257834887E+01  0.4289759616E-16 -0.2026558946E+01
  0.1200000000E+01  0.1000000000E+01  0.2570463033E+00  0.5805399276E+01 -0.5837175362E-17 -0.1773548747E+01  0.6622862699E+15  0.5811184684E+01 -0.5782069623E-17 -0.1798257783E+01
  0.1600000000E+01  0.1000000000E+01  0.3530110648E+00  0.1004026926E+02  0.2101181651E-15 -0.3926966832E+01  0.6622862699E+15  0.1003249291E+02  0.2100418621E-15 -0.3938694626E+01
  0.1553011065E+01  0.1000000000E+01  0.3530110648E+00  0.1024833478E+02  0.2123518576E-15 -0.3865278817E+01  0.6622862699E+15  0.1025939086E+02  0.2123970124E-15 -0.3879252049E+01
  0.1457046303E+01  0.1000000000E+01  0.3530110648E+00  0.9080498562E+01  0.1969245267E-15 -0.3499008443E+01  0.6622862699E+15  0.9099227364E+01  0.1982246885E-15 -0.3515939092E+01
  0.1342953697E+01  0.1000000000E+01  0.3530110648E+00  0.7818623614E+01  0.1481807675E-15 -0.2777919140E+01  0.6622862699E+15  0.7833022680E+01  0.1487905086E-15 -0.2796529563E+01
  0.1246988935E+01  0.1000000000E+01  0.3530110648E+00  0.6388978689E+01  0.6342469130E-16 -0.3009531694E+01  0.6622862699E+15  0.6399616892E+01  0.6339410328E-16 -0.3031075416E+01
  0.1200000000E+01  0.1000000000E+01  0.3530110648E+00  0.6254946726E+01  0.3301551641E-16 -0.2967032364E+01  0.6622862699E+15  0.6260011100E+01  0.3300050040E-16 -0.2989783491E+01
  0.1600000000E+01  0.1000000000E+01  0.4000000000E+00  0.1025479275E+02  0.2119598551E-15 -0.4603106506E+01  0.6622862699E+15  0.1025224535E+02  0.2118658728E-15 -0.4627771898E+01
  0.1553011065E+01  0.1000000000E+01  0.4000000000E+00  0.9606842970E+01  0.2247787151E-15 -0.3867708849E+01  0.6622862699E+15  0.9620542007E+01  0.2247470645E-15 -0.3889363567E+01
  0.1457046303E+01  0.1000000000E+01  0.4000000000E+00  0.9016207427E+01  0.1911468271E-15 -0.4041692825E+01  0.6622862699E+15  0.9032866789E+01  0.1909902096E-15 -0.4057421014E+01
  0.1342953697E+01  0.1000000000E+01  0.4000000000E+00  0.7607991665E+01  0.1549012199E-15 -0.3200319448E+01  0.6622862699E+15  0.7624393561E+01  0.1556252762E-15 -0.3211964419E+01
  0.1246988935E+01  0.1000000000E+01  0.4000000000E+00  0.6544668677E+01  0.6291895751E-16 -0.3590997277E+01  0.6622862699E+15  0.6556654611E+01  0.6295089360E-16 -0.3604501348E+01
  0.1200000000E+01  0.1000000000E+01  0.4000000000E+00  0.5919503920E+01  0.3813391008E-16 -0.3277769614E+01  0.6622862699E+15  0.5928873926E+01  0.3811420770E-16 -0.3296439046E+01
ZONE I=6, J=6, K=1, F=POINT
  0.2000000000E+01  0.1000000000E+01  0.0000000000E+00  0.2402320381E+01  0.7412600267E-19  0.2123411621E+02  0.6622862698E+15  0.2429801942E+01  0.9407201158E-19  0.2215495192E+02
  0.1953011065E+01  0.1000000000E+01  0.0000000000E+00  0.1294533578E+01 -0.3737905071E-16 -0.1372264296E+00  0.6622862699E+15  0.1294602009E+01 -0.3603633954E-16 -0.1507869015E+00
  0.1857046303E+01  0.1000000000E+01  0.0000000000E+00 -0.3034877033E+00 -0.1861955901E-16  0.1518361297E+00  0.6622862699E+15 -0.3089009749E+00 -0.1938846379E-16  0.1504325966E+00
  0.1742953697E+01  0.1000000000E+01  0.0000000000E+00  0.1372975791E+00  0.2245489331E-18 -0.3715627045E-01  0.6622862699E+15  0.1334766363E+00  0.9785725276E-19 -0.3692986693E-01
  0.1646988935E+01  0.1000000000E+01  0.0000000000E+00 -0.1241606470E+00  0.3065511085E-18  0.6037323287E-01  0.6622862699E+15 -0.1282792875E+00  0.2896680012E-18  0.5965314105E-01
  0.1600000000E+01  0.1000000000E+01  0.0000000000E+00  0.9058803514E-01 -0.1011885349E-17 -0.8436595117E-01  0.6622862699E+15  0.8727849832E-01 -0.1127769130E-17 -0.8231068073E-01
  0.2000000000E+01  0.1000000000E+01  0.4698893521E-01 -0.1224767935E-01  0.7509447623E-18  0.4848541623E+02  0.6622862699E+15 -0.5548076288E-01  0.6893259067E-18  0.4865632832E+02
  0.1953011065E+01  0.1000000000E+01  0.4698893521E-01  0.1096354094E+02  0.1356086941E-15  0.1468927905E+01  0.6622862699E+15  0.1094622465E+02  0.1343633910E-15  0.1480290405E+01
  0.1857046303E+01  0.1000000000E+01  0.4698893521E-01  0.1161713412E+02  0.2875112685E-15 -0.1891322689E+01  0.6622862699E+15  0.1161340153E+02  0.2873774504E-15 -0.1897355442E+01
  0.1742953697E+01  0.1000000000E+01  0.4698893521E-01  0.5723414737E+01 -0.4224436294E-16 -0.6434465424E+00  0.6622862699E+15  0.5719879469E+01 -0.4187531161E-16 -0.6548788839E+00
  0.1646988935E+01  0.1000000000E+01  0.4698893521E-01  0.4459365771E+01 -0.1221257018E-15 -0.6333834741E+00  0.6622862699E+15  0.4449212423E+01 -0.1217854437E-15 -0.6336898292E+00
  0.1600000000E+01  0.1000000000E+01  0.4698893521E-01  0.2838236525E+01 -0.8470514166E-16  0.2085108407E+00  0.6622862699E+15  0.2842452819E+01 -0.8441587005E-16  0.2049052759E+00
  0.2000000000E+01  0.1000000000E+01  0.1429536967E+00 -0.2821422508E+00  0.2719167218E-17  0.5050613028E+02  0.6622862699E+15 -0.2577885483E+00  0.2739879928E-17  0.5043798882E+02
  0.1953011065E+01  0.1000000000E+01  0.1429536967E+00  0.2787396014E+01 -0.5106415737E-15  0.1636534486E+02  0.6622862699E+15  0.2770167049E+01 -0.5108358676E-15  0.1639335830E+02
  0.1857046303E+01  0.1000000000E+01  0.1429536967E+00  0.1268551686E+02 -0.2635424918E-15 -0.3650005121E+01  0.6622862699E+15  0.1268309110E+02 -0.2636183587E-15 -0.3656525165E+01
  0.1742953697E+01  0.1000000000E+01  0.1429536967E+00  0.9976579407E+01 -0.2991687057E-16 -0.4047659673E+01  0.6622862699E+15  0.9966814399E+01 -0.3138944209E-16 -0.4064534149E+01
  0.1646988935E+01  0.1000000000E+01  0.1429536967E+00  0.9388544999E+01 -0.1604852258E-15 -0.2008625846E+01  0.6622862699E+15  0.9367848163E+01 -0.1603174936E-15 -0.2013166547E+01
  0.1600000000E+01  0.1000000000E+01  0.1429536967E+00  0.6058066282E+01 -0.2825772254E-15 -0.1745898696E+01  0.6622862699E+15  0.6076321059E+01 -0.2832509672E-15 -0.1752703150E+01
  0.2000000000E+01  0.1000000000E+01  0.2570463033E+00  0.1906927486E-01  0.1127985541E-17  0.4987505436E+02  0.6622862699E+15  0.1800120516E-01  0.1091939168E-17  0.4987512284E+02