TITLE = "Generated from ../MESH/Convergence_0000000000.hmesh and Convergence_0000005100.hsol"
VARIABLES = "x","y","z","veloT_x","veloT_y","veloT_z","slr_4","velo_x","velo_y","velo_z"
ZONE I=6, J=6, K=1, F=POINT
  0.4000000000E+00  0.1000000000E+01  0.0000000000E+00 -0.1094396207E-01  0.2870733857E-19  0.7466187062E-02  0.6684509570E+15 -0.1253240479E-01  0.2805572155E-19  0.7500874702E-02
  0.3530110648E+00  0.1000000000E+01  0.0000000000E+00 -0.1275042506E-03  0.8009192473E-20 -0.2846353419E-03  0.6684509570E+15 -0.1690746782E-02  0.8896056768E-20 -0.3293388569E-03
  0.2570463033E+00  0.1000000000E+01  0.0000000000E+00  0.1370382339E-02  0.9100651887E-21  0.2270253715E-02  0.6684509570E+15  0.8005927264E-04  0.1122376009E-20  0.2324433068E-02
  0.1429536967E+00  0.1000000000E+01  0.0000000000E+00  0.7641659530E-03  0.2121362374E-21 -0.1044799160E-02  0.6684509570E+15 -0.5634714285E-03  0.2194230241E-21 -0.1012595787E-02
  0.4698893521E-01  0.1000000000E+01  0.0000000000E+00  0.3184729151E-02 -0.2173511062E-20  0.1762801384E-02  0.6684509570E+15  0.2150727596E-02 -0.2140097463E-20  0.1824553886E-02
  0.0000000000E+00  0.1000000000E+01  0.0000000000E+00 -0.7304754571E-02  0.1130775198E-22  0.1886845701E-02  0.6684509570E+15 -0.7384873577E-02  0.1197634611E-22  0.1971746178E-02
  0.4000000000E+00  0.1000000000E+01  0.4698893521E-01  0.2716100652E+00  0.3081026232E-17 -0.4948846111E-01  0.6684509570E+15  0.2676893777E+00  0.3103648076E-17 -0.3929559205E-01
  0.3530110648E+00  0.1000000000E+01  0.4698893521E-01  0.1318311148E+00  0.2762477914E-17 -0.1256859182E-01  0.6684509570E+15  0.1304671742E+00  0.2766136467E-17 -0.3156020113E-02
  0.2570463033E+00  0.1000000000E+01  0.4698893521E-01  0.1023986403E+00  0.1138163211E-17 -0.2374733230E-01  0.6684509570E+15  0.1019734255E+00  0.1145148216E-17 -0.1944478094E-01
  0.1429536967E+00  0.1000000000E+01  0.4698893521E-01  0.7802013404E-02  0.3347589354E-18 -0.1540921745E-01  0.6684509570E+15  0.7094238412E-02  0.3340768492E-18 -0.1347655914E-01
  0.4698893521E-01  0.1000000000E+01  0.4698893521E-01  0.1348785305E-02  0.8027560839E-19 -0.1206313230E-01  0.6684509570E+15  0.1305991601E-02  0.7968870175E-19 -0.1131262031E-01
  0.0000000000E+00  0.1000000000E+01  0.4698893521E-01 -0.1788234386E-01  0.9438132212E-21  0.9942678221E-03  0.6684509570E+15 -0.1795538272E-01  0.9132205675E-21  0.1952524480E-02
  0.4000000000E+00  0.1000000000E+01  0.1429536967E+00  0.6132229751E+00  0.1010009710E-16 -0.1216256578E+00  0.6684509570E+15  0.6065462706E+00  0.1000911249E-16 -0.1247486463E+00
  0.3530110648E+00  0.1000000000E+01  0.1429536967E+00  0.3514624974E+00  0.6274853568E-17 -0.1619199937E+00  0.6684509570E+15  0.3523293884E+00  0.6285859374E-17 -0.1636115121E+00
  0.2570463033E+00  0.1000000000E+01  0.1429536967E+00  0.2441872814E+00  0.2650415175E-17 -0.1083075972E+00  0.6684509570E+15  0.2462955684E+00  0.2650947190E-17 -0.1089000163E+00
  0.1429536967E+00  0.1000000000E+01  0.1429536967E+00  0.3962088844E-01  0.1032737163E-17 -0.1202435009E+00  0.6684509570E+15  0.3925282550E-01  0.1033168854E-17 -0.1199418089E+00
  0.4698893521E-01  0.1000000000E+01  0.1429536967E+00 -0.5042212244E-02  0.2873526184E-18 -0.1333176429E-01  0.6684509570E+15 -0.4295980797E-02  0.2840197955E-18 -0.1270523884E-01
  0.0000000000E+00  0.1000000000E+01  0.1429536967E+00 -0.2145130187E-01 -0.1817672598E-21 -0.2720228615E-02  0.6684509570E+15 -0.2144157121E-01 -0.8261181499E-22 -0.1547364393E-02
  0.4000000000E+00  0.1000000000E+01  0.2570463033E+00  0.7392254714E+00  0.4288049133E-17 -0.3803976026E+00  0.6684509570E+15  0.7236146093E+00  0.4277152954E-17 -0.4052521981E+00
  0.3530110648E+00  0.1000000000E+01  0.2570463033E+00  0.5538563626E+00  0.3443401822E-17 -0.4266688711E+00  0.6684509570E+15  0.5457263233E+00  0.3171393786E-17 -0.4456889015E+00
  0.2570463033E+00  0.1000000000E+01  0.2570463033E+00  0.3405769364E+00  0.2424138499E-17 -0.3040879965E+00  0.6684509570E+15  0.3360047446E+00  0.2426447251E-17 -0.3119772140E+00
  0.1429536967E+00  0.1000000000E+01  0.2570463033E+00  0.9793353183E-01  0.1747582156E-17 -0.2876567429E+00  0.6684509570E+15  0.9523848297E-01  0.1748016088E-17 -0.2877966588E+00
  0.4698893521E-01  0.1000000000E+01  0.2570463033E+00  0.9211884871E-02  0.1087901579E-17 -0.5304025135E-01  0.6684509570E+15  0.9869146992E-02  0.1097347240E-17 -0.5234034924E-01
  0.0000000000E+00  0.1000000000E+01  0.2570463033E+00 -0.1434737824E-01 -0.3393033126E-20 -0.2257756320E-02  0.6684509570E+15 -0.1437268813E-01 -0.3786397253E-20 -0.1414780850E-02
  0.4000000000E+00  0.1000000000E+01  0.3530110648E+00  0.8101428743E+00  0.4804989983E-17 -0.6704687004E+00  0.6684509570E+15  0.7805117107E+00  0.4825349894E-17 -0.6984084986E+00
  0.3530110648E+00  0.1000000000E+01  0.3530110648E+00  0.6076455740E+00  0.4270816081E-17 -0.6789002406E+00  0.6684509570E+15  0.5867099276E+00  0.4267358582E-17 -0.7005126111E+00
  0.2570463033E+00  0.1000000000E+01  0.3530110648E+00  0.3720011390E+00  0.2273389490E-17 -0.5215564863E+00  0.6684509570E+15  0.3566363601E+00  0.2413669732E-17 -0.5312589025E+00
  0.1429536967E+00  0.1000000000E+01  0.3530110648E+00  0.1095698174E+00  0.2252961456E-17 -0.4316053127E+00  0.6684509570E+15  0.1031324034E+00  0.2251854667E-17 -0.4315417182E+00
  0.4698893521E-01  0.1000000000E+01  0.3530110648E+00  0.1164776494E-01  0.7164328132E-18 -0.1173869430E+00  0.6684509570E+15  0.1401914942E-01  0.7106653372E-18 -0.1167535399E+00
  0.0000000000E+00  0.1000000000E+01  0.3530110648E+00 -0.1435741215E-01  0.5613928070E-20 -0.2736006352E-02  0.6684509570E+15 -0.1432117996E-01  0.5217705669E-20 -0.1907963580E-02
  0.4000000000E+00  0.1000000000E+01  0.4000000000E+00  0.8060113418E+00  0.6938075684E-17 -0.8246648290E+00  0.6684509570E+15  0.7709264753E+00  0.6938386059E-17 -0.8528663127E+00
  0.3530110648E+00  0.1000000000E+01  0.4000000000E+00  0.6498299738E+00  0.5946142589E-17 -0.8173045502E+00  0.6684509570E+15  0.6232882886E+00  0.6004070899E-17 -0.8412661966E+00
  0.2570463033E+00  0.1000000000E+01  0.4000000000E+00  0.3826966925E+00  0.2625067897E-17 -0.6341921131E+00  0.6684509570E+15  0.3619640369E+00  0.2566423908E-17 -0.6469431836E+00
  0.1429536967E+00  0.1000000000E+01  0.4000000000E+00  0.1237682351E+00  0.2395029045E-17 -0.5080938335E+00  0.6684509570E+15  0.1152364979E+00  0.2375182428E-17 -0.5116402727E+00
  0.4698893521E-01  0.1000000000E+01  0.4000000000E+00  0.8558151778E-02  0.6904725165E-18 -0.1475020952E+00  0.6684509570E+15  0.1137119141E-01  0.6895560447E-18 -0.1481232442E+00
  0.0000000000E+00  0.1000000000E+01  0.4000000000E+00 -0.6962575905E-02  0.7657259190E-20 -0.4255094100E-02  0.6684509570E+15 -0.6853800893E-02  0.7739102788E-20 -0.3454722730E-02
ZONE I=6, J=6, K=1, F=POINT
  0.8000000000E+00  0.1000000000E+01  0.0000000000E+00  0.1717619288E-01 -0.8494250470E-19 -0.1122620370E-01  0.6684509570E+15  0.1509037719E-01 -0.8869732356E-19 -0.1166670047E-01
  0.7530110648E+00  0.1000000000E+01  0.0000000000E+00  0.2027539399E-02  0.7813068249E-19  0.6155833999E-02  0.6684509570E+15 -0.5221180072E-03  0.2109299698E-19  0.6141490578E-02
  0.6570463033E+00  0.1000000000E+01  0.0000000000E+00 -0.4135805939E-03  0.2109542049E-19  0.3321572812E-03  0.6684509570E+15 -0.2989912066E-02 -0.1179423294E-19  0.3647834348E-03
  0.5429536967E+00  0.1000000000E+01  0.0000000000E+00  0.1041272835E-02  0.3055531744E-19  0.7207167818E-02  0.6684509570E+15 -0.1344023876E-02 -0.3035294846E-19  0.7155591547E-02
  0.4469889352E+00  0.1000000000E+01  0.0000000000E+00 -0.1079527885E-02 -0.1313926887E-19  0.6934853857E-03  0.6684509570E+15 -0.3398429784E-02 -0.8297392808E-19  0.7328830432E-03
  0.4000000000E+00  0.1000000000E+01  0.0000000000E+00  0.1580650130E-01  0.3230960974E-19  0.7168507777E-02  0.6684509570E+15  0.1386828255E-01  0.3174213519E-19  0.7201404080E-02
  0.8000000000E+00  0.1000000000E+01  0.4698893521E-01  0.3479080488E+00 -0.2344644922E-16 -0.2447065629E-03  0.6684509570E+15  0.3401485978E+00 -0.2335086171E-16 -0.1733669141E-02
  0.7530110648E+00  0.1000000000E+01  0.4698893521E-01  0.5408701269E+00 -0.2309731096E-16 -0.5818256550E-01  0.6684509570E+15  0.5331991226E+00 -0.2265744169E-16 -0.5940446124E-01
  0.6570463033E+00  0.1000000000E+01  0.4698893521E-01  0.3170275232E+00 -0.4376249359E-17 -0.2547821801E-01  0.6684509570E+15  0.3099085529E+00 -0.4465415262E-17 -0.2673457864E-01
  0.5429536967E+00  0.1000000000E+01  0.4698893521E-01  0.3425221519E+00  0.4471993259E-17 -0.1481919102E-01  0.6684509570E+15  0.3345951582E+00  0.4338185830E-17 -0.1357326777E-01
  0.4469889352E+00  0.1000000000E+01  0.4698893521E-01  0.2107278639E+00  0.4020778024E-17 -0.5876294967E-02  0.6684509570E+15  0.2033712235E+00  0.4058917516E-17  0.2166556410E-02
  0.4000000000E+00  0.1000000000E+01  0.4698893521E-01  0.3138468458E+00  0.2838735622E-17 -0.5025468243E-01  0.6684509570E+15  0.3093608967E+00  0.2864407378E-17 -0.4004796960E-01
  0.8000000000E+00  0.1000000000E+01  0.1429536967E+00  0.1117519974E+01 -0.5324374743E-16 -0.3707864002E+00  0.6684509570E+15  0.1112093183E+01 -0.5337100653E-16 -0.3839755712E+00
  0.7530110648E+00  0.1000000000E+01  0.1429536967E+00  0.1402707212E+01 -0.3338941476E-16 -0.2210376849E+00  0.6684509570E+15  0.1396269621E+01 -0.3324583901E-16 -0.2363066236E+00
  0.6570463033E+00  0.1000000000E+01  0.1429536967E+00  0.9470432526E+00 -0.3316855354E-17 -0.2073529738E+00  0.6684509570E+15  0.9392806937E+00 -0.3010462847E-17 -0.2239132606E+00
  0.5429536967E+00  0.1000000000E+01  0.1429536967E+00  0.8615449741E+00  0.9993550329E-17 -0.5942630936E-01  0.6684509570E+15  0.8474557844E+00  0.9582427040E-17 -0.7187363689E-01
  0.4469889352E+00  0.1000000000E+01  0.1429536967E+00  0.5475413760E+00  0.9811293052E-17 -0.1424032568E+00  0.6684509570E+15  0.5329417565E+00  0.9943801915E-17 -0.1481559525E+00
  0.4000000000E+00  0.1000000000E+01  0.1429536967E+00  0.6651976395E+00  0.1081982391E-16 -0.1210658314E+00  0.6684509570E+15  0.6580645179E+00  0.1072031037E-16 -0.1242003250E+00
  0.8000000000E+00  0.1000000000E+01  0.2570463033E+00  0.2186990544E+01 -0.1237813253E-16 -0.9312122662E+00  0.6684509570E+15  0.2189813959E+01 -0.1237873931E-16 -0.9523046085E+00
  0.7530110648E+00  0.1000000000E+01  0.2570463033E+00  0.2042029380E+01 -0.8150647746E-17 -0.6702128314E+00  0.6684509570E+15  0.2042945612E+01 -0.8513233939E-17 -0.6953669527E+00
  0.6570463033E+00  0.1000000000E+01  0.2570463033E+00  0.1546997422E+01 -0.2829037836E-17 -0.5952333001E+00  0.6684509570E+15  0.1541279638E+01 -0.2658381854E-17 -0.6276988136E+00
  0.5429536967E+00  0.1000000000E+01  0.2570463033E+00  0.1177543492E+01  0.3438852892E-17 -0.3277046439E+00  0.6684509570E+15  0.1158970660E+01  0.3135892581E-17 -0.3624499849E+00
  0.4469889352E+00  0.1000000000E+01  0.2570463033E+00  0.8252492004E+00  0.4526027038E-17 -0.4280291249E+00  0.6684509570E+15  0.8028358591E+00  0.4163860608E-17 -0.4576060243E+00
  0.4000000000E+00  0.1000000000E+01  0.2570463033E+00  0.7703026609E+00  0.4315572131E-17 -0.3797365678E+00  0.6684509570E+15  0.7547963490E+00  0.4302156568E-17 -0.4046412355E+00
  0.8000000000E+00  0.1000000000E+01  0.3530110648E+00  0.2459766870E+01  0.2665514742E-17 -0.1450639500E+01  0.6684509570E+15  0.2470969237E+01  0.2645584629E-17 -0.1469932561E+01
  0.7530110648E+00  0.1000000000E+01  0.3530110648E+00  0.2336430904E+01  0.6411171074E-17 -0.1221588539E+01  0.6684509570E+15  0.2347334504E+01  0.6997320165E-17 -0.1245700413E+01
  0.6570463033E+00  0.1000000000E+01  0.3530110648E+00  0.1787590219E+01 -0.2120508653E-18 -0.1025504043E+01  0.6684509570E+15  0.1790232108E+01  0.2103675204E-18 -0.1060363197E+01
  0.5429536967E+00  0.1000000000E+01  0.3530110648E+00  0.1328746442E+01 -0.1078694575E-17 -0.7022578295E+00  0.6684509570E+15  0.1309200295E+01  0.4803537850E-18 -0.7431050062E+00
  0.4469889352E+00  0.1000000000E+01  0.3530110648E+00  0.8870818024E+00  0.4334722863E-17 -0.7224283113E+00  0.6684509570E+15  0.8541484324E+00  0.4556403712E-17 -0.7569132123E+00
  0.4000000000E+00  0.1000000000E+01  0.3530110648E+00  0.8425339472E+00  0.4778706265E-17 -0.6702699408E+00  0.6684509570E+15  0.8134638131E+00  0.4803600570E-17 -0.6982163369E+00
  0.8000000000E+00  0.1000000000E+01  0.4000000000E+00  0.2574470507E+01 -0.3024397079E-17 -0.1767942942E+01  0.6684509570E+15  0.2590220916E+01 -0.3023062605E-17 -0.1788956365E+01
  0.7530110648E+00  0.1000000000E+01  0.4000000000E+00  0.2322568961E+01 -0.1794157981E-18 -0.1476767105E+01  0.6684509570E+15  0.2338832133E+01 -0.2365946389E-19 -0.1502329903E+01
  0.6570463033E+00  0.1000000000E+01  0.4000000000E+00  0.1819324281E+01  0.1437139755E-17 -0.1264613032E+01  0.6684509570E+15  0.1825791145E+01  0.1323763536E-17 -0.1298537352E+01
  0.5429536967E+00  0.1000000000E+01  0.4000000000E+00  0.1329274882E+01  0.7716560147E-17 -0.9425412218E+00  0.6684509570E+15  0.1309304207E+01  0.6858415114E-17 -0.9783829048E+00
  0.4469889352E+00  0.1000000000E+01  0.4000000000E+00  0.9525454623E+00  0.7943782131E-17 -0.9035876131E+00  0.6684509570E+15  0.9148700921E+00  0.7243652313E-17 -0.9360596583E+00
  0.4000000000E+00  0.1000000000E+01  0.4000000000E+00  0.8175458239E+00  0.6956799164E-17 -0.8238805041E+00  0.6684509570E+15  0.7821969996E+00  0.6958650400E-17 -0.8521257186E+00
ZONE I=6, J=6, K=1, F=POINT
  0.1200000000E+01  0.1000000000E+01  0.0000000000E+00 -0.3343476795E-01  0.5734770179E-19  0.3662286774E-01  0.6684509570E+15 -0.3555615549E-01  0.5717930803E-19  0.3653355909E-01
  0.1153011065E+01  0.1000000000E+01  0.0000000000E+00 -0.6774920098E-02 -0.2988867897E-18 -0.9679920126E-02  0.6684509570E+15 -0.9182893494E-02 -0.4188528307E-18 -0.9653070156E-02
  0.1057046303E+01  0.1000000000E+01  0.0000000000E+00  0.7936084792E-03 -0.1566905505E-19  0.5886190101E-02  0.6684509570E+15 -0.1643705350E-02 -0.7922841561E-19  0.5941898454E-02
  0.9429536967E+00  0.1000000000E+01  0.0000000000E+00 -0.3489507506E-02  0.2618902701E-20 -0.8317666835E-02  0.6684509570E+15 -0.5544982489E-02  0.3048123616E-21 -0.8226162109E-02
  0.8469889352E+00  0.1000000000E+01  0.0000000000E+00  0.1865822861E-02 -0.2246102359E-19  0.5500254755E-02  0.6684509570E+15 -0.2027621052E-05 -0.2392737202E-19  0.5512753330E-02
  0.8000000000E+00  0.1000000000E+01  0.0000000000E+00 -0.2841209629E-01 -0.9459449153E-19 -0.1068659111E-01  0.6684509570E+15 -0.3048971423E-01 -0.9869641603E-19 -0.1113999195E-01
  0.1200000000E+01  0.1000000000E+01  0.4698893521E-01  0.2237858452E+01 -0.4209803154E-16 -0.2292835330E+00  0.6684509570E+15  0.2229296311E+01 -0.4169071530E-16 -0.2299037858E+00
  0.1153011065E+01  0.1000000000E+01  0.4698893521E-01  0.1543124324E+01 -0.2613706957E-16 -0.8212627315E-01  0.6684509570E+15  0.1532840155E+01 -0.2581460233E-16 -0.8172266016E-01
  0.1057046303E+01  0.1000000000E+01  0.4698893521E-01  0.1399237933E+01 -0.1221317927E-16 -0.1113895651E+00  0.6684509570E+15  0.1389374840E+01 -0.1232841370E-16 -0.1101805631E+00
  0.9429536967E+00  0.1000000000E+01  0.4698893521E-01  0.7838134692E+00 -0.1459483960E-16 -0.9514625383E-01  0.6684509570E+15  0.7756743126E+00 -0.1436565838E-16 -0.9385799151E-01
  0.8469889352E+00  0.1000000000E+01  0.4698893521E-01  0.6768628766E+00 -0.2751194377E-16 -0.8864445139E-01  0.6684509570E+15  0.6695533591E+00 -0.2718615220E-16 -0.8900205709E-01
  0.8000000000E+00  0.1000000000E+01  0.4698893521E-01  0.2862401424E+00 -0.2274186340E-16  0.1813010485E-02  0.6684509570E+15  0.2796156359E+00 -0.2266201687E-16  0.2724964766E-03
  0.1200000000E+01  0.1000000000E+01  0.1429536967E+00  0.5199236581E+01 -0.5824608488E-16 -0.6570164233E+00  0.6684509570E+15  0.5193778739E+01 -0.5798320357E-16 -0.6568185721E+00
  0.1153011065E+01  0.1000000000E+01  0.1429536967E+00  0.3732664488E+01 -0.6743717548E-16 -0.8648318128E+00  0.6684509570E+15  0.3723200694E+01 -0.6801259989E-16 -0.8652934142E+00
  0.1057046303E+01  0.1000000000E+01  0.1429536967E+00  0.3328986141E+01 -0.3817426771E-16 -0.6475865687E+00  0.6684509570E+15  0.3320005528E+01 -0.3816173376E-16 -0.6503345973E+00
  0.9429536967E+00  0.1000000000E+01  0.1429536967E+00  0.2051798930E+01 -0.3373028943E-16 -0.7477821939E+00  0.6684509570E+15  0.2046192464E+01 -0.3372404736E-16 -0.7541885123E+00
  0.8469889352E+00  0.1000000000E+01  0.1429536967E+00  0.1753327578E+01 -0.4958110369E-16 -0.3940892204E+00  0.6684509570E+15  0.1749555560E+01 -0.4944287612E-16 -0.4052321365E+00
  0.8000000000E+00  0.1000000000E+01  0.1429536967E+00  0.1034047627E+01 -0.5545109597E-16 -0.3724193168E+00  0.6684509570E+15  0.1030442627E+01 -0.5559296868E-16 -0.3855771618E+00
  0.1200000000E+01  0.1000000000E+01  0.2570463033E+00  0.5526650399E+01 -0.5845613958E-17 -0.1768813118E+01  0.6684509570E+15  0.5518313952E+01 -0.5784765790E-17 -0.1766835865E+01
  0.1153011065E+01  0.1000000000E+01  0.2570463033E+00  0.4983177306E+01 -0.3850843169E-16 -0.2019629696E+01  0.6684509570E+15  0.4976204343E+01 -0.3767774358E-16 -0.2018899652E+01
  0.1057046303E+01  0.1000000000E+01  0.2570463033E+00  0.4120315096E+01 -0.3098970974E-16 -0.1625294469E+01  0.6684509570E+15  0.4116284346E+01 -0.3100168072E-16 -0.1627299310E+01
  0.9429536967E+00  0.1000000000E+01  0.2570463033E+00  0.3124125793E+01 -0.2914239062E-16 -0.1657608605E+01  0.6684509570E+15  0.3125578441E+01 -0.2919774127E-16 -0.1666594601E+01
  0.8469889352E+00  0.1000000000E+01  0.2570463033E+00  0.2559957919E+01 -0.1383052940E-16 -0.1012259056E+01  0.6684509570E+15  0.2564260936E+01 -0.1392317964E-16 -0.1029510725E+01
  0.8000000000E+00  0.1000000000E+01  0.2570463033E+00  0.2149158847E+01 -0.1253311146E-16 -0.9337855939E+00  0.6684509570E+15  0.2152205946E+01 -0.1252356253E-16 -0.9544803723E+00
  0.1200000000E+01  0.1000000000E+01  0.3530110648E+00  0.5850066908E+01  0.3351735011E-16 -0.2933100383E+01  0.6684509570E+15  0.5841013256E+01  0.3355210212E-16 -0.2939807923E+01
  0.1153011065E+01  0.1000000000E+01  0.3530110648E+00  0.5120058573E+01  0.1394848181E-16 -0.2861442529E+01  0.6684509570E+15  0.5113101062E+01  0.1405662003E-16 -0.2866783183E+01
  0.1057046303E+01  0.1000000000E+01  0.3530110648E+00  0.4360540892E+01 -0.6854226232E-17 -0.2485847086E+01  0.6684509570E+15  0.4359740917E+01 -0.6770139636E-17 -0.2491462771E+01
  0.9429536967E+00  0.1000000000E+01  0.3530110648E+00  0.3381776139E+01 -0.1311528096E-16 -0.2266088599E+01  0.6684509570E+15  0.3390221193E+01 -0.1329719375E-16 -0.2275690615E+01
  0.8469889352E+00  0.1000000000E+01  0.3530110648E+00  0.2898240699E+01 -0.1026629721E-17 -0.1644115218E+01  0.6684509570E+15  0.2911007418E+01 -0.5345870493E-18 -0.1659834451E+01
  0.8000000000E+00  0.1000000000E+01  0.3530110648E+00  0.2412946541E+01  0.2723526346E-17 -0.1450935451E+01  0.6684509570E+15  0.2424528779E+01  0.2714541109E-17 -0.1470263101E+01
  0.1200000000E+01  0.1000000000E+01  0.4000000000E+00  0.5577355532E+01  0.3944741091E-16 -0.3257835418E+01  0.6684509570E+15  0.5565906976E+01  0.3946276809E-16 -0.3275089728E+01
  0.1153011065E+01  0.1000000000E+01  0.4000000000E+00  0.5209128321E+01  0.3065778963E-16 -0.3371549201E+01  0.6684509570E+15  0.5201310459E+01  0.3058803521E-16 -0.3388966561E+01
  0.1057046303E+01  0.1000000000E+01  0.4000000000E+00  0.4311829787E+01  0.4815232146E-17 -0.2870747003E+01  0.6684509570E+15  0.4311861596E+01  0.4688249885E-17 -0.2889097560E+01
  0.9429536967E+00  0.1000000000E+01  0.4000000000E+00  0.3456574337E+01 -0.1184145562E-16 -0.2630916493E+01  0.6684509570E+15  0.3466004911E+01 -0.1222715985E-16 -0.2649426727E+01
  0.8469889352E+00  0.1000000000E+01  0.4000000000E+00  0.2862087591E+01 -0.7780885921E-17 -0.1929718416E+01  0.6684509570E+15  0.2877515294E+01 -0.7580043821E-17 -0.1948545149E+01
  0.8000000000E+00  0.1000000000E+01  0.4000000000E+00  0.2570686060E+01 -0.3001344065E-17 -0.1771343664E+01  0.6684509570E+15  0.2585441507E+01 -0.3001077570E-17 -0.1791939438E+01
ZONE I=6, J=6, K=1, F=POINT
  0.1600000000E+01  0.1000000000E+01  0.0000000000E+00  0.1284738161E+00 -0.9266107365E-18 -0.7176129685E-01  0.6684509570E+15  0.1266026079E+00 -0.1042269478E-17 -0.7116445465E-01
  0.1553011065E+01  0.1000000000E+01  0.0000000000E+00  0.8135199596E-02 -0.1210158383E-17  0.4531500023E-01  0.6684509570E+15  0.6564675200E-02 -0.1157817606E-17  0.4518718667E-01
  0.1457046303E+01  0.1000000000E+01  0.0000000000E+00 -0.9430613634E-02 -0.3976747620E-19 -0.3322697541E-02  0.6684509570E+15 -0.1130964407E-01 -0.1476676086E-19 -0.3254845556E-02
  0.1342953697E+01  0.1000000000E+01  0.0000000000E+00  0.3246549946E-02  0.2891881164E-18  0.2983568982E-01  0.6684509570E+15  0.1524222183E-02  0.1940884074E-18  0.2976331789E-01
  0.1246988935E+01  0.1000000000E+01  0.0000000000E+00 -0.9653114951E-02  0.1113276625E-18 -0.8242916957E-02  0.6684509570E+15 -0.1144068380E-01  0.1106428990E-18 -0.8167536743E-02
  0.1200000000E+01  0.1000000000E+01  0.0000000000E+00  0.5604178741E-01  0.6128349287E-19  0.3665970805E-01  0.6684509570E+15  0.5385483768E-01  0.6057536148E-19  0.3655058445E-01
  0.1600000000E+01  0.1000000000E+01  0.4698893521E-01  0.2999086703E+01 -0.8772498039E-16  0.2276164380E+00  0.6684509570E+15  0.2992200589E+01 -0.8757468364E-16  0.2346489426E+00
  0.1553011065E+01  0.1000000000E+01  0.4698893521E-01  0.3502994094E+01 -0.4348195577E-16 -0.2759873555E+00  0.6684509570E+15  0.3497130198E+01 -0.4366430087E-16 -0.2719992951E+00
  0.1457046303E+01  0.1000000000E+01  0.4698893521E-01  0.2545394413E+01 -0.4331513006E-17 -0.9201447072E-01  0.6684509570E+15  0.2538528683E+01 -0.4117147856E-17 -0.9216843413E-01
  0.1342953697E+01  0.1000000000E+01  0.4698893521E-01  0.2551325335E+01  0.2865306521E-16 -0.7439845450E-01  0.6684509570E+15  0.2543581113E+01  0.2858338135E-16 -0.7626178157E-01
  0.1246988935E+01  0.1000000000E+01  0.4698893521E-01  0.1973456226E+01 -0.6925463156E-17 -0.5291190876E-01  0.6684509570E+15  0.1965186222E+01 -0.7267088650E-17 -0.5413777117E-01
  0.1200000000E+01  0.1000000000E+01  0.4698893521E-01  0.2336716024E+01 -0.4633417081E-16 -0.2349881579E+00  0.6684509570E+15  0.2326043171E+01 -0.4589204055E-16 -0.2352167235E+00
  0.1600000000E+01  0.1000000000E+01  0.1429536967E+00  0.6387836288E+01 -0.2657602305E-15 -0.1768044805E+01  0.6684509570E+15  0.6371615344E+01 -0.2657359214E-15 -0.1766290468E+01
  0.1553011065E+01  0.1000000000E+01  0.1429536967E+00  0.8097319867E+01 -0.1415555804E-15 -0.9364057096E+00  0.6684509570E+15  0.8095895475E+01 -0.1416742234E-15 -0.9361693064E+00
  0.1457046303E+01  0.1000000000E+01  0.1429536967E+00  0.6063221317E+01  0.3258073617E-16 -0.9334918387E+00  0.6684509570E+15  0.6059694773E+01  0.3217279889E-16 -0.9353976358E+00
  0.1342953697E+01  0.1000000000E+01  0.1429536967E+00  0.6031322899E+01  0.1009944398E-15 -0.2311547487E+00  0.6684509570E+15  0.6023098530E+01  0.1007113576E-15 -0.2329137847E+00
  0.1246988935E+01  0.1000000000E+01  0.1429536967E+00  0.4658210459E+01  0.2601357766E-16 -0.7851105754E+00  0.6684509570E+15  0.4649358102E+01  0.2684232303E-16 -0.7845699189E+00
  0.1200000000E+01  0.1000000000E+01  0.1429536967E+00  0.5365998297E+01 -0.6240463716E-16 -0.6515419925E+00  0.6684509570E+15  0.5350269217E+01 -0.6205128725E-16 -0.6520555965E+00
  0.1600000000E+01  0.1000000000E+01  0.2570463033E+00  0.1135270671E+02  0.1052857542E-15 -0.3576579488E+01  0.6684509570E+15  0.1136187253E+02  0.1052388564E-15 -0.3594474188E+01
  0.1553011065E+01  0.1000000000E+01  0.2570463033E+00  0.1029133937E+02  0.1283981172E-15 -0.2499695697E+01  0.6684509570E+15  0.1029256156E+02  0.1281064511E-15 -0.2511999859E+01
  0.1457046303E+01  0.1000000000E+01  0.2570463033E+00  0.8932678600E+01  0.1876624649E-15 -0.2393380890E+01  0.6684509570E+15  0.8927128513E+01  0.1872438939E-15 -0.2402019661E+01
  0.1342953697E+01  0.1000000000E+01  0.2570463033E+00  0.7280690108E+01  0.1338910803E-15 -0.1265101292E+01  0.6684509570E+15  0.7270432217E+01  0.1332951970E-15 -0.1268388023E+01
  0.1246988935E+01  0.1000000000E+01  0.2570463033E+00  0.6007894015E+01  0.4337280081E-16 -0.2001487967E+01  0.6684509570E+15  0.5997029209E+01  0.4283793446E-16 -0.2000258055E+01
  0.1200000000E+01  0.1000000000E+01  0.2570463033E+00  0.5565914307E+01 -0.6131957414E-17 -0.1759267981E+01  0.6684509570E+15  0.5558227082E+01 -0.6057511905E-17 -0.1760039986E+01
  0.1600000000E+01  0.1000000000E+01  0.3530110648E+00  0.9855731830E+01  0.2089216731E-15 -0.4090974613E+01  0.6684509570E+15  0.9856893635E+01  0.2088260886E-15 -0.4103394066E+01
  0.1553011065E+01  0.1000000000E+01  0.3530110648E+00  0.1005177124E+02  0.2131451184E-15 -0.4023467022E+01  0.6684509570E+15  0.1005012535E+02  0.2131042225E-15 -0.4037639757E+01
  0.1457046303E+01  0.1000000000E+01  0.3530110648E+00  0.8826423896E+01  0.2022510682E-15 -0.3618713370E+01  0.6684509570E+15  0.8817113719E+01  0.2017724728E-15 -0.3631446924E+01
  0.1342953697E+01  0.1000000000E+01  0.3530110648E+00  0.7500404312E+01  0.1515586094E-15 -0.2818370623E+01  0.6684509570E+15  0.7486304921E+01  0.1512130973E-15 -0.2828298839E+01
  0.1246988935E+01  0.1000000000E+01  0.3530110648E+00  0.6053565572E+01  0.6498047865E-16 -0.2992987353E+01  0.6684509570E+15  0.6040368743E+01  0.6555945896E-16 -0.3000463538E+01
  0.1200000000E+01  0.1000000000E+01  0.3530110648E+00  0.5927315720E+01  0.3363710131E-16 -0.2933490261E+01  0.6684509570E+15  0.5914963908E+01  0.3363295838E-16 -0.2939892308E+01
  0.1600000000E+01  0.1000000000E+01  0.4000000000E+00  0.1003512195E+02  0.2110616855E-15 -0.4830667463E+01  0.6684509570E+15  0.1004358712E+02  0.2109544454E-15 -0.4839033751E+01
  0.1553011065E+01  0.1000000000E+01  0.4000000000E+00  0.9375345685E+01  0.2252944415E-15 -0.4079157600E+01  0.6684509570E+15  0.9376643964E+01  0.2252847310E-15 -0.4087219302E+01
  0.1457046303E+01  0.1000000000E+01  0.4000000000E+00  0.8721400570E+01  0.1945230347E-15 -0.4190662435E+01  0.6684509570E+15  0.8711056786E+01  0.1944943799E-15 -0.4200298408E+01
  0.1342953697E+01  0.1000000000E+01  0.4000000000E+00  0.7248097151E+01  0.1599301470E-15 -0.3251186712E+01  0.6684509570E+15  0.7235502835E+01  0.1590020079E-15 -0.3266234470E+01
  0.1246988935E+01  0.1000000000E+01  0.4000000000E+00  0.6170927615E+01  0.6573853847E-16 -0.3579704047E+01  0.6684509570E+15  0.6156281708E+01  0.6604937621E-16 -0.3595564810E+01
  0.1200000000E+01  0.1000000000E+01  0.4000000000E+00  0.5550680384E+01  0.3971744569E-16 -0.3245699603E+01  0.6684509570E+15  0.5541576536E+01  0.3970833407E-16 -0.3265690252E+01
ZONE I=6, J=6, K=1, F=POINT
  0.2000000000E+01  0.1000000000E+01  0.0000000000E+00  0.2401917962E+01  0.7333291687E-19  0.2123388204E+02  0.6684509569E+15  0.2429642041E+01  0.9380194319E-19  0.2215484554E+02
  0.1953011065E+01  0.1000000000E+01  0.0000000000E+00  0.1291016924E+01 -0.3731115743E-16 -0.1376383998E+00  0.6684509570E+15  0.1293796887E+01 -0.3603544473E-16 -0.1509764053E+00
  0.1857046303E+01  0.1000000000E+01  0.0000000000E+00 -0.3079290647E+00 -0.1887509312E-16  0.1518878380E+00  0.6684509570E+15 -0.3100760514E+00 -0.1945223379E-16  0.1504098947E+00
  0.1742953697E+01  0.1000000000E+01  0.0000000000E+00  0.1328060734E+00  0.2154767196E-18 -0.3719787122E-01  0.6684509570E+15  0.1320541671E+00  0.9611665099E-19 -0.3692057691E-01
  0.1646988935E+01  0.1000000000E+01  0.0000000000E+00 -0.1289225251E+00  0.3215452404E-18  0.6065748174E-01  0.6684509570E+15 -0.1302180701E+00  0.2931121313E-18  0.5973415315E-01
  0.1600000000E+01  0.1000000000E+01  0.0000000000E+00  0.8673217055E-01 -0.1005584991E-17 -0.8383540744E-01  0.6684509570E+15  0.8469862947E-01 -0.1122930509E-17 -0.8188073878E-01
  0.2000000000E+01  0.1000000000E+01  0.4698893521E-01 -0.1269739309E-01  0.7490126536E-18  0.4848173607E+02  0.6684509570E+15 -0.5567329768E-01  0.6861212078E-18  0.4865556605E+02
  0.1953011065E+01  0.1000000000E+01  0.4698893521E-01  0.1095706554E+02  0.1358455502E-15  0.1461535055E+01  0.6684509570E+15  0.1094012809E+02  0.1345928458E-15  0.1474799638E+01
  0.1857046303E+01  0.1000000000E+01  0.4698893521E-01  0.1162313393E+02  0.2877723683E-15 -0.1897456668E+01  0.6684509570E+15  0.1161775195E+02  0.2875440965E-15 -0.1894486705E+01
  0.1742953697E+01  0.1000000000E+01  0.4698893521E-01  0.5734892993E+01 -0.4120174700E-16 -0.6499909827E+00  0.6684509570E+15  0.5731651717E+01 -0.4082865810E-16 -0.6447026161E+00
  0.1646988935E+01  0.1000000000E+01  0.4698893521E-01  0.4456086442E+01 -0.1215632427E-15 -0.6301324151E+00  0.6684509570E+15  0.4447979648E+01 -0.1213426854E-15 -0.6202417044E+00
  0.1600000000E+01  0.1000000000E+01  0.4698893521E-01  0.2835169460E+01 -0.8488173724E-16  0.2134568242E+00  0.6684509570E+15  0.2837126067E+01 -0.8454130938E-16  0.2151829257E+00
  0.2000000000E+01  0.1000000000E+01  0.1429536967E+00 -0.2819913747E+00  0.2725448710E-17  0.5050185060E+02  0.6684509570E+15 -0.2575665873E+00  0.2761391294E-17  0.5043761702E+02
  0.1953011065E+01  0.1000000000E+01  0.1429536967E+00  0.2785860213E+01 -0.5120223225E-15  0.1637023799E+02  0.6684509570E+15  0.2764642694E+01 -0.5126131283E-15  0.1640245847E+02
  0.1857046303E+01  0.1000000000E+01  0.1429536967E+00  0.1269656671E+02 -0.2619222403E-15 -0.3638618107E+01  0.6684509570E+15  0.1267950629E+02 -0.2611182760E-15 -0.3630672724E+01
  0.1742953697E+01  0.1000000000E+01  0.1429536967E+00  0.9969614032E+01 -0.2921247950E-16 -0.4056445788E+01  0.6684509570E+15  0.9961212772E+01 -0.3053297731E-16 -0.4050132007E+01
  0.1646988935E+01  0.1000000000E+01  0.1429536967E+00  0.9349270203E+01 -0.1599126559E-15 -0.2026401373E+01  0.6684509570E+15  0.9346380168E+01 -0.1597046230E-15 -0.2020159640E+01
  0.1600000000E+01  0.1000000000E+01  0.1429536967E+00  0.6016333732E+01 -0.2823266259E-15 -0.1768221618E+01  0.6684509570E+15  0.6040116408E+01 -0.2826892101E-15 -0.1770932235E+01
  0.2000000000E+01  0.1000000000E+01  0.2570463033E+00  0.1893443391E-01  0.1126287443E-17  0.4987116872E+02  0.6684509570E+15  0.1800016304E-01  0.1092067343E-17  0.4987556939E+02