TITLE = "Generated from ../MESH/Convergence_0000000000.hmesh and Convergence_0000000200.hsol"
VARIABLES = "x","y","z","veloT_x","veloT_y","veloT_z","slr_4","velo_x","velo_y","velo_z"
ZONE I=6, J=6, K=1, F=POINT
  0.4000000000E+00  0.1000000000E+01  0.0000000000E+00 -0.1403145862E-01  0.1588630067E-19  0.1015900026E-01  0.6869118003E+15 -0.1877568619E-01  0.1471483672E-19  0.8220853499E-02
  0.3530110648E+00  0.1000000000E+01  0.0000000000E+00  0.9002149154E-02  0.5020935816E-20  0.2297218842E-02  0.6869118003E+15 -0.8935164714E-02  0.4290614647E-20  0.1139262960E-02
  0.2570463033E+00  0.1000000000E+01  0.0000000000E+00  0.1685802596E-01 -0.2438819658E-21  0.3534656451E-02  0.6869118003E+15 -0.4202594401E-02 -0.1310793824E-20  0.3348971031E-02
  0.1429536967E+00  0.1000000000E+01  0.0000000000E+00  0.3637198598E-01  0.2298944197E-22  0.2825176039E-02  0.6869118003E+15 -0.1146594767E-02 -0.5935187862E-21  0.1439346539E-02
  0.4698893521E-01  0.1000000000E+01  0.0000000000E+00  0.4190655542E-01  0.1061676233E-20 -0.3253291577E-02  0.6869118003E+15  0.3839484978E-02  0.5191729072E-21 -0.1100601852E-03
  0.0000000000E+00  0.1000000000E+01  0.0000000000E+00 -0.1838339678E-02 -0.2165452971E-23 -0.3293031399E-02  0.6869118003E+15 -0.5423523067E-02 -0.5467147480E-23  0.1980711161E-03
  0.4000000000E+00  0.1000000000E+01  0.4698893521E-01  0.7980705460E-01 -0.7059700206E-18 -0.1253013609E+00  0.6869118003E+15  0.6297947423E-01 -0.6032778993E-18 -0.6048701396E-01
  0.3530110648E+00  0.1000000000E+01  0.4698893521E-01 -0.3415987780E-01 -0.5252387838E-18 -0.9432856540E-01  0.6869118003E+15 -0.6693494062E-01 -0.2463062223E-18 -0.3049563791E-01
  0.2570463033E+00  0.1000000000E+01  0.4698893521E-01 -0.8847652700E-01  0.9846719611E-19 -0.1012007353E+00  0.6869118003E+15 -0.1151726023E+00  0.2194814117E-18 -0.4141454978E-01
  0.1429536967E+00  0.1000000000E+01  0.4698893521E-01 -0.5544939178E-01 -0.5026114255E-19 -0.7683926695E-01  0.6869118003E+15 -0.8880203820E-01 -0.1163498942E-18 -0.3437517024E-01
  0.4698893521E-01  0.1000000000E+01  0.4698893521E-01  0.8044394134E-01 -0.1679246110E-18 -0.8938344881E-01  0.6869118003E+15  0.4801905768E-01 -0.2116847725E-18 -0.5560365480E-01
  0.0000000000E+00  0.1000000000E+01  0.4698893521E-01 -0.1194565738E-01  0.8160800234E-22 -0.3784235845E-01  0.6869118003E+15 -0.1516460549E-01  0.1298664764E-21  0.2732220477E-03
  0.4000000000E+00  0.1000000000E+01  0.1429536967E+00  0.1676720087E+00  0.2336176425E-17 -0.2487095127E+00  0.6869118003E+15  0.1570748127E+00  0.2203596068E-17 -0.2063722536E+00
  0.3530110648E+00  0.1000000000E+01  0.1429536967E+00 -0.1770547754E-01  0.4956942856E-18 -0.2763494948E+00  0.6869118003E+15 -0.5115007581E-01  0.2567702230E-18 -0.2346535716E+00
  0.2570463033E+00  0.1000000000E+01  0.1429536967E+00 -0.3514375384E-01 -0.2339249926E-19 -0.1858034391E+00  0.6869118003E+15 -0.5072049077E-01 -0.3956524313E-20 -0.1473276961E+00
  0.1429536967E+00  0.1000000000E+01  0.1429536967E+00 -0.1554252848E-01 -0.1314198750E-18 -0.3827914856E-01  0.6869118003E+15 -0.3836929569E-01 -0.1143560643E-18 -0.1135904402E-01
  0.4698893521E-01  0.1000000000E+01  0.1429536967E+00  0.6798760784E-01  0.2585782721E-18  0.4276884096E-01  0.6869118003E+15  0.2959014116E-01  0.9887434688E-19  0.7657344928E-01
  0.0000000000E+00  0.1000000000E+01  0.1429536967E+00 -0.2328604752E-01 -0.2601021754E-20 -0.3854765285E-01  0.6869118003E+15 -0.2191288719E-01 -0.2881911928E-20 -0.8987590999E-03
  0.4000000000E+00  0.1000000000E+01  0.2570463033E+00  0.2022750216E+00  0.1695518530E-17 -0.2940506387E+00  0.6869118003E+15  0.1932138963E+00  0.1666715816E-17 -0.2726677423E+00
  0.3530110648E+00  0.1000000000E+01  0.2570463033E+00  0.1674601905E+00 -0.7330531263E-19 -0.3193727005E+00  0.6869118003E+15  0.1338562271E+00  0.2148684630E-18 -0.2987737009E+00
  0.2570463033E+00  0.1000000000E+01  0.2570463033E+00  0.1890246909E+00  0.7075769141E-19 -0.1753963820E+00  0.6869118003E+15  0.1789994932E+00  0.6418186825E-19 -0.1572215165E+00
  0.1429536967E+00  0.1000000000E+01  0.2570463033E+00  0.1802775590E+00  0.1950178814E-18  0.6612637315E-02  0.6869118003E+15  0.1517572881E+00  0.1896727627E-18  0.2675688004E-01
  0.4698893521E-01  0.1000000000E+01  0.2570463033E+00  0.9720755974E-01  0.4156744676E-18  0.1107549495E+00  0.6869118003E+15  0.4448794808E-01  0.7836546164E-18  0.1385991709E+00
  0.0000000000E+00  0.1000000000E+01  0.2570463033E+00 -0.1277614629E-01 -0.5689001157E-20 -0.1848619717E-01  0.6869118003E+15 -0.1263533423E-01 -0.6500720763E-20  0.3118330115E-02
  0.4000000000E+00  0.1000000000E+01  0.3530110648E+00  0.2312413948E+00  0.7943511541E-18 -0.2669761255E+00  0.6869118003E+15  0.2211803914E+00  0.8012936266E-18 -0.2203454091E+00
  0.3530110648E+00  0.1000000000E+01  0.3530110648E+00  0.2126194507E+00  0.5400592990E-18 -0.2770624372E+00  0.6869118003E+15  0.1835430760E+00  0.5624225883E-18 -0.2322431269E+00
  0.2570463033E+00  0.1000000000E+01  0.3530110648E+00  0.2716252553E+00 -0.2854165184E-18 -0.1668434393E+00  0.6869118003E+15  0.2631146351E+00 -0.8795660347E-18 -0.1259404454E+00
  0.1429536967E+00  0.1000000000E+01  0.3530110648E+00  0.2381147191E+00 -0.7984886723E-18 -0.4349560659E-01  0.6869118003E+15  0.2078940145E+00 -0.1134628833E-17 -0.5031557126E-02
  0.4698893521E-01  0.1000000000E+01  0.3530110648E+00  0.1005387093E+00  0.2227868786E-18  0.2762233729E-01  0.6869118003E+15  0.4901348602E-01 -0.9098272494E-19  0.6184813779E-01
  0.0000000000E+00  0.1000000000E+01  0.3530110648E+00 -0.1332664477E-01 -0.4706473253E-20 -0.1240709343E-01  0.6869118003E+15 -0.1223016669E-01 -0.3241956444E-20  0.6279982789E-02
  0.4000000000E+00  0.1000000000E+01  0.4000000000E+00  0.2217806751E+00  0.7119530540E-18 -0.2429369953E+00  0.6869118003E+15  0.2113175645E+00  0.7129207987E-18 -0.2259725771E+00
  0.3530110648E+00  0.1000000000E+01  0.4000000000E+00  0.2506137860E+00  0.5827052467E-18 -0.2508713673E+00  0.6869118003E+15  0.2231052165E+00  0.5563505904E-18 -0.2338830487E+00
  0.2570463033E+00  0.1000000000E+01  0.4000000000E+00  0.2997301640E+00 -0.2721296536E-17 -0.1625842642E+00  0.6869118003E+15  0.2924768190E+00 -0.2708984359E-17 -0.1473868299E+00
  0.1429536967E+00  0.1000000000E+01  0.4000000000E+00  0.2653446408E+00 -0.2778006486E-17 -0.7363209855E-01  0.6869118003E+15  0.2357724310E+00 -0.2577378711E-17 -0.6004075227E-01
  0.4698893521E-01  0.1000000000E+01  0.4000000000E+00  0.9305987773E-01 -0.1114128881E-17  0.1057704583E-01  0.6869118003E+15  0.4272712562E-01 -0.1182441676E-17  0.2721182714E-01
  0.0000000000E+00  0.1000000000E+01  0.4000000000E+00 -0.6692821067E-02  0.3419575974E-20 -0.8050819415E-03  0.6869118003E+15 -0.4754209489E-02  0.4760624912E-20  0.4349639276E-02
ZONE I=6, J=6, K=1, F=POINT
  0.8000000000E+00  0.1000000000E+01  0.0000000000E+00 -0.2591958370E-01  0.4425008197E-19 -0.9150520411E-02  0.6869118003E+15  0.1919817403E-02  0.3441665507E-19 -0.9935372581E-02
  0.7530110648E+00  0.1000000000E+01  0.0000000000E+00 -0.3749711395E-01 -0.6604171527E-18  0.7137115272E-02  0.6869118003E+15 -0.1269559904E-01 -0.1259103473E-18  0.6461616722E-02
  0.6570463033E+00  0.1000000000E+01  0.0000000000E+00 -0.3121556308E-01 -0.4222019710E-18  0.2045085007E-02  0.6869118003E+15 -0.1350362198E-01 -0.1787353427E-18  0.1302994806E-02
  0.5429536967E+00  0.1000000000E+01  0.0000000000E+00 -0.1666737609E-01 -0.4488170936E-18  0.8685631480E-02  0.6869118003E+15 -0.9386499033E-02 -0.2561155237E-18  0.7928752993E-02
  0.4469889352E+00  0.1000000000E+01  0.0000000000E+00 -0.7871598444E-02 -0.2241439145E-18  0.2549753379E-02  0.6869118003E+15 -0.9591857544E-02 -0.2803829467E-18  0.1743619491E-02
  0.4000000000E+00  0.1000000000E+01  0.0000000000E+00  0.1267883684E-01  0.1870543265E-19  0.9873074808E-02  0.6869118003E+15  0.7509217007E-02  0.1837505870E-19  0.7956360179E-02
  0.8000000000E+00  0.1000000000E+01  0.4698893521E-01  0.4109189269E+00 -0.2344744784E-16 -0.2827511268E-01  0.6869118003E+15  0.4064591720E+00 -0.2335693163E-16  0.2385543561E-01
  0.7530110648E+00  0.1000000000E+01  0.4698893521E-01  0.5690941279E+00 -0.2258322248E-16 -0.9771309023E-01  0.6869118003E+15  0.5648940544E+00 -0.2245298024E-16 -0.4104986592E-01
  0.6570463033E+00  0.1000000000E+01  0.4698893521E-01  0.3281522270E+00 -0.3952019353E-17 -0.8767290579E-01  0.6869118003E+15  0.3202696020E+00 -0.3960948838E-17 -0.2389411947E-01
  0.5429536967E+00  0.1000000000E+01  0.4698893521E-01  0.2540868861E+00  0.4585017650E-17 -0.1027021574E+00  0.6869118003E+15  0.2423732061E+00  0.4422525671E-17 -0.3480221064E-01
  0.4469889352E+00  0.1000000000E+01  0.4698893521E-01  0.4909786859E-01  0.3733859941E-18 -0.8688108094E-01  0.6869118003E+15  0.3389122477E-01  0.4201823449E-18 -0.2005471684E-01
  0.4000000000E+00  0.1000000000E+01  0.4698893521E-01  0.1220835722E+00 -0.9431261696E-18 -0.1259906202E+00  0.6869118003E+15  0.1054575810E+00 -0.8388671609E-18 -0.6117262053E-01
  0.8000000000E+00  0.1000000000E+01  0.1429536967E+00  0.3689873673E+00 -0.2645227936E-16 -0.3453924004E+00  0.6869118003E+15  0.3569752239E+00 -0.2684320177E-16 -0.2947363071E+00
  0.7530110648E+00  0.1000000000E+01  0.1429536967E+00  0.6813529708E+00 -0.1627565738E-16 -0.2660353248E+00  0.6869118003E+15  0.6729463181E+00 -0.1661397642E-16 -0.2141326152E+00
  0.6570463033E+00  0.1000000000E+01  0.1429536967E+00  0.3821912507E+00 -0.1142175968E-16 -0.3312605675E+00  0.6869118003E+15  0.3716507821E+00 -0.1091820910E-16 -0.2799332914E+00
  0.5429536967E+00  0.1000000000E+01  0.1429536967E+00  0.3277324474E+00  0.6703591809E-17 -0.2886346129E+00  0.6869118003E+15  0.3174321693E+00  0.6424070068E-17 -0.2375430605E+00
  0.4469889352E+00  0.1000000000E+01  0.1429536967E+00  0.7036958227E-01  0.2548386625E-17 -0.3088359449E+00  0.6869118003E+15  0.6096564821E-01  0.2422117476E-17 -0.2636981160E+00
  0.4000000000E+00  0.1000000000E+01  0.1429536967E+00  0.2166296209E+00  0.3074228560E-17 -0.2482159452E+00  0.6869118003E+15  0.2056838757E+00  0.2931577008E-17 -0.2058517385E+00
  0.8000000000E+00  0.1000000000E+01  0.2570463033E+00  0.2303853287E+00  0.6755033823E-17 -0.4907536429E+00  0.6869118003E+15  0.2192420338E+00  0.6676807651E-17 -0.4601249422E+00
  0.7530110648E+00  0.1000000000E+01  0.2570463033E+00  0.2566882078E+00  0.6293783947E-18 -0.3703962516E+00  0.6869118003E+15  0.2530335174E+00  0.1080048696E-17 -0.3404731212E+00
  0.6570463033E+00  0.1000000000E+01  0.2570463033E+00  0.1789936572E+00 -0.1035921871E-16 -0.4487715240E+00  0.6869118003E+15  0.1716389818E+00 -0.1012736477E-16 -0.4225999736E+00
  0.5429536967E+00  0.1000000000E+01  0.2570463033E+00  0.1835064597E+00  0.6268742917E-18 -0.3706307568E+00  0.6869118003E+15  0.1769397759E+00  0.4840262896E-18 -0.3456726436E+00
  0.4469889352E+00  0.1000000000E+01  0.2570463033E+00  0.1484201126E+00  0.6349427204E-18 -0.3874175240E+00  0.6869118003E+15  0.1456304940E+00  0.9224236585E-18 -0.3655095989E+00
  0.4000000000E+00  0.1000000000E+01  0.2570463033E+00  0.2280852246E+00  0.1751423589E-17 -0.2935210239E+00  0.6869118003E+15  0.2191506208E+00  0.1719788630E-17 -0.2721194030E+00
  0.8000000000E+00  0.1000000000E+01  0.3530110648E+00 -0.6796439085E-01  0.1253481920E-16 -0.4772162748E+00  0.6869118003E+15 -0.8168515988E-01  0.1251657771E-16 -0.4414202577E+00
  0.7530110648E+00  0.1000000000E+01  0.3530110648E+00  0.2939158376E-01  0.1391664699E-16 -0.4142577403E+00  0.6869118003E+15  0.2518766771E-01  0.1361902374E-16 -0.3759268065E+00
  0.6570463033E+00  0.1000000000E+01  0.3530110648E+00  0.2587973829E-01 -0.5112602336E-17 -0.4174098355E+00  0.6869118003E+15  0.1771072217E-01 -0.5402695071E-17 -0.3758043668E+00
  0.5429536967E+00  0.1000000000E+01  0.3530110648E+00  0.1141881177E+00 -0.8221067276E-17 -0.3411381736E+00  0.6869118003E+15  0.1070433657E+00 -0.8130238795E-17 -0.2949153919E+00
  0.4469889352E+00  0.1000000000E+01  0.3530110648E+00  0.1227817007E+00  0.6713580104E-18 -0.3290166198E+00  0.6869118003E+15  0.1204617236E+00  0.2442999329E-18 -0.2828687447E+00
  0.4000000000E+00  0.1000000000E+01  0.3530110648E+00  0.2576575661E+00  0.7630521391E-18 -0.2668497404E+00  0.6869118003E+15  0.2472641796E+00  0.7739914103E-18 -0.2201969913E+00
  0.8000000000E+00  0.1000000000E+01  0.4000000000E+00 -0.9752263830E-01 -0.1208165575E-17 -0.4994447126E+00  0.6869118003E+15 -0.1141199305E+00 -0.1217080553E-17 -0.4802875028E+00
  0.7530110648E+00  0.1000000000E+01  0.4000000000E+00 -0.1095489775E+00  0.1766504462E-17 -0.3953649088E+00  0.6869118003E+15 -0.1149290834E+00  0.1577353735E-17 -0.3754056758E+00
  0.6570463033E+00  0.1000000000E+01  0.4000000000E+00 -0.4528923659E-01 -0.2618061828E-17 -0.3991803768E+00  0.6869118003E+15 -0.5561215522E-01 -0.2635461357E-17 -0.3781652250E+00
  0.5429536967E+00  0.1000000000E+01  0.4000000000E+00  0.5878417965E-01  0.2343725420E-17 -0.3547938504E+00  0.6869118003E+15  0.5116986287E-01  0.2413127023E-17 -0.3302549129E+00
  0.4469889352E+00  0.1000000000E+01  0.4000000000E+00  0.1624138817E+00  0.2387105338E-17 -0.3106956373E+00  0.6869118003E+15  0.1617536915E+00  0.2273079961E-17 -0.2919815456E+00
  0.4000000000E+00  0.1000000000E+01  0.4000000000E+00  0.2278510281E+00  0.7377669020E-18 -0.2424101616E+00  0.6869118003E+15  0.2163439789E+00  0.7380929518E-18 -0.2254035808E+00
ZONE I=6, J=6, K=1, F=POINT
  0.1200000000E+01  0.1000000000E+01  0.0000000000E+00 -0.7727747596E-01  0.2517234617E-19  0.3498416782E-01  0.6869118003E+15 -0.4571075115E-01  0.2341943265E-19  0.3503968986E-01
  0.1153011065E+01  0.1000000000E+01  0.0000000000E+00 -0.5284839370E-01 -0.2030280583E-17 -0.8443171194E-02  0.6869118003E+15 -0.1972556102E-01 -0.5661360704E-18 -0.8271616896E-02
  0.1057046303E+01  0.1000000000E+01  0.0000000000E+00 -0.4847182993E-01 -0.1171700126E-17  0.6952433082E-02  0.6869118003E+15 -0.1378474123E-01 -0.2738093570E-18  0.6905829999E-02
  0.9429536967E+00  0.1000000000E+01  0.0000000000E+00 -0.5252058286E-01  0.1146142301E-18 -0.6295869553E-02  0.6869118003E+15 -0.1884587426E-01  0.1098768192E-18 -0.6508093709E-02
  0.8469889352E+00  0.1000000000E+01  0.0000000000E+00 -0.4282304919E-01  0.1077461064E-18  0.6508206311E-02  0.6869118003E+15 -0.1265802168E-01  0.1011112016E-18  0.6012112136E-02
  0.8000000000E+00  0.1000000000E+01  0.0000000000E+00 -0.7085501562E-01  0.3324758193E-19 -0.8681782951E-02  0.6869118003E+15 -0.4311662769E-01  0.2424112881E-19 -0.9454539669E-02
  0.1200000000E+01  0.1000000000E+01  0.4698893521E-01  0.1347933848E+01 -0.2229790344E-16 -0.8345497059E-01  0.6869118003E+15  0.1355112311E+01 -0.2272997596E-16 -0.8532465216E-01
  0.1153011065E+01  0.1000000000E+01  0.4698893521E-01  0.8682357277E+00 -0.5928558547E-17  0.5069121226E-01  0.6869118003E+15  0.8713526025E+00 -0.6073015325E-17  0.5525206415E-01
  0.1057046303E+01  0.1000000000E+01  0.4698893521E-01  0.9468094962E+00  0.3129821393E-17 -0.2219529709E-01  0.6869118003E+15  0.9497615085E+00  0.3196652271E-17 -0.4042016720E-02
  0.9429536967E+00  0.1000000000E+01  0.4698893521E-01  0.6432601441E+00 -0.1317512798E-16 -0.2637030821E-01  0.6869118003E+15  0.6432495583E+00 -0.1314479294E-16  0.7482855388E-02
  0.8469889352E+00  0.1000000000E+01  0.4698893521E-01  0.6954299201E+00 -0.2747508400E-16 -0.8268456086E-01  0.6869118003E+15  0.6936188418E+00 -0.2745849349E-16 -0.3636376601E-01
  0.8000000000E+00  0.1000000000E+01  0.4698893521E-01  0.3484718470E+00 -0.2276285154E-16 -0.2634221274E-01  0.6869118003E+15  0.3439437896E+00 -0.2266635472E-16  0.2573266299E-01
  0.1200000000E+01  0.1000000000E+01  0.1429536967E+00  0.2082772646E+01 -0.4256070467E-16  0.2434718846E-01  0.6869118003E+15  0.2083607917E+01 -0.4254758421E-16  0.5195284366E-01
  0.1153011065E+01  0.1000000000E+01  0.1429536967E+00  0.1068618165E+01 -0.1608858572E-16 -0.1957995122E+00  0.6869118003E+15  0.1063656065E+01 -0.1691254812E-16 -0.1666703677E+00
  0.1057046303E+01  0.1000000000E+01  0.1429536967E+00  0.1238112470E+01 -0.1104046458E-17 -0.1134003178E+00  0.6869118003E+15  0.1231843552E+01 -0.1120695083E-17 -0.7813481848E-01
  0.9429536967E+00  0.1000000000E+01  0.1429536967E+00  0.7064573053E+00 -0.1420478752E-16 -0.2716781343E+00  0.6869118003E+15  0.6969947506E+00 -0.1419225702E-16 -0.2305583631E+00
  0.8469889352E+00  0.1000000000E+01  0.1429536967E+00  0.8168566322E+00 -0.2337999415E-16 -0.2297110091E+00  0.6869118003E+15  0.8061005919E+00 -0.2343126857E-16 -0.1813691081E+00
  0.8000000000E+00  0.1000000000E+01  0.1429536967E+00  0.2890382081E+00 -0.2853639948E-16 -0.3465455608E+00  0.6869118003E+15  0.2767889022E+00 -0.2897748378E-16 -0.2959302290E+00
  0.1200000000E+01  0.1000000000E+01  0.2570463033E+00  0.8937378544E+00 -0.3016874034E-16 -0.2393420379E+00  0.6869118003E+15  0.8927152993E+00 -0.3011842604E-16 -0.2018279663E+00
  0.1153011065E+01  0.1000000000E+01  0.2570463033E+00  0.7563580062E+00 -0.6719393774E-16 -0.5076583407E+00  0.6869118003E+15  0.7525741986E+00 -0.6593424797E-16 -0.4720123426E+00
  0.1057046303E+01  0.1000000000E+01  0.2570463033E+00  0.5786000350E+00 -0.1976502846E-16 -0.3099755200E+00  0.6869118003E+15  0.5733898171E+00 -0.1984060159E-16 -0.2761376558E+00
  0.9429536967E+00  0.1000000000E+01  0.2570463033E+00  0.3709378066E+00 -0.2810802684E-16 -0.4901810422E+00  0.6869118003E+15  0.3612586074E+00 -0.2748882948E-16 -0.4599090796E+00
  0.8469889352E+00  0.1000000000E+01  0.2570463033E+00  0.3256968925E+00  0.3824930244E-17 -0.3603352994E+00  0.6869118003E+15  0.3140404526E+00  0.3771813878E-17 -0.3292732154E+00
  0.8000000000E+00  0.1000000000E+01  0.2570463033E+00  0.1973856578E+00  0.6475688851E-17 -0.4922386967E+00  0.6869118003E+15  0.1865810545E+00  0.6422232757E-17 -0.4615871477E+00
  0.1200000000E+01  0.1000000000E+01  0.3530110648E+00  0.7010259898E+00 -0.1205693040E-16 -0.6739845434E+00  0.6869118003E+15  0.6984805159E+00 -0.1204886568E-16 -0.6480935887E+00
  0.1153011065E+01  0.1000000000E+01  0.3530110648E+00  0.3632969409E+00 -0.1992718238E-16 -0.6536459289E+00  0.6869118003E+15  0.3593987279E+00 -0.1984165608E-16 -0.6269458895E+00
  0.1057046303E+01  0.1000000000E+01  0.3530110648E+00  0.2441615582E+00 -0.5340229132E-17 -0.5269298082E+00  0.6869118003E+15  0.2383890149E+00 -0.5826065925E-17 -0.4969903439E+00
  0.9429536967E+00  0.1000000000E+01  0.3530110648E+00  0.1196322818E-01 -0.1642216436E-16 -0.5335116268E+00  0.6869118003E+15  0.1529490438E-02 -0.1630752011E-16 -0.5009527254E+00
  0.8469889352E+00  0.1000000000E+01  0.3530110648E+00  0.5414749869E-01  0.8160558506E-17 -0.4491404688E+00  0.6869118003E+15  0.4087375717E-01  0.7408919065E-17 -0.4149194664E+00
  0.8000000000E+00  0.1000000000E+01  0.3530110648E+00 -0.1069363105E+00  0.1251626446E-16 -0.4771111155E+00  0.6869118003E+15 -0.1203205529E+00  0.1250663790E-16 -0.4413741806E+00
  0.1200000000E+01  0.1000000000E+01  0.4000000000E+00  0.3288205910E+00 -0.1177682233E-16 -0.6662894441E+00  0.6869118003E+15  0.3252974807E+00 -0.1177298325E-16 -0.6307917323E+00
  0.1153011065E+01  0.1000000000E+01  0.4000000000E+00  0.3196323767E+00 -0.5284953890E-17 -0.8209277754E+00  0.6869118003E+15  0.3159597436E+00 -0.5726035061E-17 -0.7870692325E+00
  0.1057046303E+01  0.1000000000E+01  0.4000000000E+00  0.5862282767E-01 -0.7565365661E-18 -0.5962864764E+00  0.6869118003E+15  0.5191508119E-01 -0.7874612639E-18 -0.5647041390E+00
  0.9429536967E+00  0.1000000000E+01  0.4000000000E+00 -0.6611928503E-01 -0.1601514819E-16 -0.6070379109E+00  0.6869118003E+15 -0.7610135150E-01 -0.1570799137E-16 -0.5792924247E+00
  0.8469889352E+00  0.1000000000E+01  0.4000000000E+00 -0.1215975728E+00 -0.7067885471E-17 -0.4510884792E+00  0.6869118003E+15 -0.1338249360E+00 -0.7219392763E-17 -0.4293054598E+00
  0.8000000000E+00  0.1000000000E+01  0.4000000000E+00 -0.9620129732E-01 -0.1210742732E-17 -0.5017198128E+00  0.6869118003E+15 -0.1124172920E+00 -0.1218325473E-17 -0.4825503635E+00
ZONE I=6, J=6, K=1, F=POINT
  0.1600000000E+01  0.1000000000E+01  0.0000000000E+00  0.1267980108E+00 -0.4267992474E-18 -0.7199881748E-01  0.6869118003E+15  0.1299102064E+00 -0.4741463052E-18 -0.7016309079E-01
  0.1553011065E+01  0.1000000000E+01  0.0000000000E+00  0.9925639315E-03 -0.9585593651E-18  0.4406145891E-01  0.6869118003E+15  0.8186216963E-02 -0.1320536959E-17  0.4462855888E-01
  0.1457046303E+01  0.1000000000E+01  0.0000000000E+00 -0.2918471696E-01  0.6988415939E-18 -0.4434340869E-02  0.6869118003E+15 -0.1372633131E-01  0.3235363570E-18 -0.3998024475E-02
  0.1342953697E+01  0.1000000000E+01  0.0000000000E+00 -0.2850528949E-01 -0.1337800165E-17  0.2778436383E-01  0.6869118003E+15 -0.4567752579E-02 -0.1765543620E-19  0.2818071793E-01
  0.1246988935E+01  0.1000000000E+01  0.0000000000E+00 -0.5015500688E-01 -0.4301015894E-18 -0.7891495873E-02  0.6869118003E+15 -0.2064734690E-01 -0.2501785562E-18 -0.7582571917E-02
  0.1200000000E+01  0.1000000000E+01  0.0000000000E+00  0.1396983212E-01  0.2495631032E-19  0.3518735190E-01  0.6869118003E+15  0.4529475643E-01  0.2802646335E-19  0.3521472056E-01
  0.1600000000E+01  0.1000000000E+01  0.4698893521E-01  0.2042717427E+01 -0.5060722022E-16  0.3245659976E+00  0.6869118003E+15  0.2044981756E+01 -0.5077645686E-16  0.2978059649E+00
  0.1553011065E+01  0.1000000000E+01  0.4698893521E-01  0.2376275448E+01  0.2891609238E-17 -0.1947832043E+00  0.6869118003E+15  0.2386756448E+01  0.3040182601E-17 -0.2204863700E+00
  0.1457046303E+01  0.1000000000E+01  0.4698893521E-01  0.1596747923E+01 -0.1700566226E-16  0.1832702611E-01  0.6869118003E+15  0.1603766164E+01 -0.1710886350E-16 -0.4697631657E-02
  0.1342953697E+01  0.1000000000E+01  0.4698893521E-01  0.1526346517E+01  0.1951735556E-16 -0.3055256040E-01  0.6869118003E+15  0.1533774900E+01  0.1958586347E-16 -0.4513468691E-01
  0.1246988935E+01  0.1000000000E+01  0.4698893521E-01  0.1012304569E+01  0.4402709288E-17  0.7115217248E-01  0.6869118003E+15  0.1018544477E+01  0.4567896398E-17  0.6467811433E-01
  0.1200000000E+01  0.1000000000E+01  0.4698893521E-01  0.1452242440E+01 -0.2678573618E-16 -0.8878437931E-01  0.6869118003E+15  0.1458973755E+01 -0.2722058435E-16 -0.9042970279E-01
  0.1600000000E+01  0.1000000000E+01  0.1429536967E+00  0.1272376153E+01 -0.1452838523E-15 -0.1215572341E+01  0.6869118003E+15  0.1276012332E+01 -0.1456894087E-15 -0.1193199109E+01
  0.1553011065E+01  0.1000000000E+01  0.1429536967E+00  0.3090422959E+01 -0.8916117676E-16 -0.4586817040E+00  0.6869118003E+15  0.3105300777E+01 -0.8986503690E-16 -0.4357987540E+00
  0.1457046303E+01  0.1000000000E+01  0.1429536967E+00  0.1780255575E+01  0.4861537602E-16 -0.4522844340E+00  0.6869118003E+15  0.1788542862E+01  0.4873713844E-16 -0.4327240782E+00
  0.1342953697E+01  0.1000000000E+01  0.1429536967E+00  0.2160695731E+01  0.7311984249E-16 -0.4847967137E-01  0.6869118003E+15  0.2165241642E+01  0.7329294407E-16 -0.2437417141E-01
  0.1246988935E+01  0.1000000000E+01  0.1429536967E+00  0.1320266944E+01 -0.4988330040E-17 -0.1998145999E+00  0.6869118003E+15  0.1322123630E+01 -0.4762379250E-17 -0.1748451708E+00
  0.1200000000E+01  0.1000000000E+01  0.1429536967E+00  0.2239032927E+01 -0.4630833305E-16  0.2768224596E-01  0.6869118003E+15  0.2237628249E+01 -0.4631405784E-16  0.5506148240E-01
  0.1600000000E+01  0.1000000000E+01  0.2570463033E+00  0.3052199886E+01  0.2633584927E-18 -0.2007798082E+01  0.6869118003E+15  0.3064674083E+01  0.3820666593E-18 -0.1976505669E+01
  0.1553011065E+01  0.1000000000E+01  0.2570463033E+00  0.2403678594E+01  0.1113829458E-16 -0.9885061775E+00  0.6869118003E+15  0.2422375916E+01  0.1178427188E-16 -0.9532953553E+00
  0.1457046303E+01  0.1000000000E+01  0.2570463033E+00  0.1970514036E+01  0.1058609319E-15 -0.1025108014E+01  0.6869118003E+15  0.1981509574E+01  0.1063195116E-15 -0.9906274175E+00
  0.1342953697E+01  0.1000000000E+01  0.2570463033E+00  0.1416596944E+01  0.8555860000E-16 -0.3074613083E+00  0.6869118003E+15  0.1420349292E+01  0.8565744843E-16 -0.2682899113E+00
  0.1246988935E+01  0.1000000000E+01  0.2570463033E+00  0.1043878075E+01  0.2221556347E-16 -0.5605533636E+00  0.6869118003E+15  0.1046249568E+01  0.2266195735E-16 -0.5227491111E+00
  0.1200000000E+01  0.1000000000E+01  0.2570463033E+00  0.9299528761E+00 -0.3083285644E-16 -0.2348954847E+00  0.6869118003E+15  0.9286832518E+00 -0.3074662349E-16 -0.1978088590E+00
  0.1600000000E+01  0.1000000000E+01  0.3530110648E+00  0.1572679914E+01  0.1653883679E-16 -0.1957250948E+01  0.6869118003E+15  0.1575114926E+01  0.1665488989E-16 -0.1954756857E+01
  0.1553011065E+01  0.1000000000E+01  0.3530110648E+00  0.1897522518E+01  0.2541702076E-16 -0.1744899242E+01  0.6869118003E+15  0.1911021243E+01  0.2559409448E-16 -0.1739075273E+01
  0.1457046303E+01  0.1000000000E+01  0.3530110648E+00  0.1387141735E+01  0.6895873453E-16 -0.1347458703E+01  0.6869118003E+15  0.1393312594E+01  0.6894654343E-16 -0.1336852692E+01
  0.1342953697E+01  0.1000000000E+01  0.3530110648E+00  0.1137378283E+01  0.6388741386E-16 -0.8907961836E+00  0.6869118003E+15  0.1135728648E+01  0.6368974738E-16 -0.8707440741E+00
  0.1246988935E+01  0.1000000000E+01  0.3530110648E+00  0.6044088274E+00  0.8142386985E-17 -0.7639034948E+00  0.6869118003E+15  0.6050626593E+00  0.8057772886E-17 -0.7398936616E+00
  0.1200000000E+01  0.1000000000E+01  0.3530110648E+00  0.7647244961E+00 -0.1215880587E-16 -0.6750994911E+00  0.6869118003E+15  0.7619202002E+00 -0.1214398748E-16 -0.6490044853E+00
  0.1600000000E+01  0.1000000000E+01  0.4000000000E+00  0.2087927734E+01  0.3566596306E-19 -0.2587441033E+01  0.6869118003E+15  0.2087924570E+01  0.3550084624E-19 -0.2551651365E+01
  0.1553011065E+01  0.1000000000E+01  0.4000000000E+00  0.1492716117E+01  0.2142308971E-16 -0.1566897414E+01  0.6869118003E+15  0.1504635475E+01  0.2118801832E-16 -0.1530559131E+01
  0.1457046303E+01  0.1000000000E+01  0.4000000000E+00  0.1369389350E+01  0.2904874815E-16 -0.1552196918E+01  0.6869118003E+15  0.1373126205E+01  0.2956223045E-16 -0.1515968508E+01
  0.1342953697E+01  0.1000000000E+01  0.4000000000E+00  0.8562502996E+00  0.5959815133E-16 -0.8913576533E+00  0.6869118003E+15  0.8530630164E+00  0.5949093076E-16 -0.8544318185E+00
  0.1246988935E+01  0.1000000000E+01  0.4000000000E+00  0.6144760045E+00  0.3783218227E-17 -0.9680987431E+00  0.6869118003E+15  0.6140364292E+00  0.3644067625E-17 -0.9328526101E+00
  0.1200000000E+01  0.1000000000E+01  0.4000000000E+00  0.2982403115E+00 -0.1158061165E-16 -0.6588502634E+00  0.6869118003E+15  0.2947103927E+00 -0.1158658521E-16 -0.6237135848E+00
ZONE I=6, J=6, K=1, F=POINT
  0.2000000000E+01  0.1000000000E+01  0.0000000000E+00  0.2397724701E+01  0.2276386281E-19  0.2122800054E+02  0.6869118003E+15  0.2422486424E+01  0.7115427580E-19  0.2214868182E+02
  0.1953011065E+01  0.1000000000E+01  0.0000000000E+00  0.1349132834E+01 -0.3509185159E-16 -0.1519879413E+00  0.6869118003E+15  0.1321262806E+01 -0.3417821432E-16 -0.1632013396E+00
  0.1857046303E+01  0.1000000000E+01  0.0000000000E+00 -0.2533576479E+00 -0.1618732868E-16  0.1585036261E+00  0.6869118003E+15 -0.2846729326E+00 -0.1855345465E-16  0.1543265988E+00
  0.1742953697E+01  0.1000000000E+01  0.0000000000E+00  0.1533174241E+00  0.4535927074E-18 -0.3700770571E-01  0.6869118003E+15  0.1399720888E+00  0.4062384525E-18 -0.3600579862E-01
  0.1646988935E+01  0.1000000000E+01  0.0000000000E+00 -0.1114206023E+00  0.1071823695E-17  0.5940087275E-01  0.6869118003E+15 -0.1205737352E+00  0.1115524418E-17  0.5955244127E-01
  0.1600000000E+01  0.1000000000E+01  0.0000000000E+00  0.7592503393E-01 -0.5200489679E-18 -0.8486927917E-01  0.6869118003E+15  0.7967138018E-01 -0.5630136352E-18 -0.8164203022E-01
  0.2000000000E+01  0.1000000000E+01  0.4698893521E-01 -0.2463711313E-01  0.1124739226E-17  0.4853354084E+02  0.6869118003E+15 -0.7164662415E-01  0.9811349856E-18  0.4867906558E+02
  0.1953011065E+01  0.1000000000E+01  0.4698893521E-01  0.1036283052E+02  0.1636357595E-15  0.9995137675E+00  0.6869118003E+15  0.1036744217E+02  0.1634441134E-15  0.1011785132E+01
  0.1857046303E+01  0.1000000000E+01  0.4698893521E-01  0.9087663651E+01  0.4024456398E-15 -0.1967095637E+01  0.6869118003E+15  0.9113488882E+01  0.4031941576E-15 -0.1985971695E+01
  0.1742953697E+01  0.1000000000E+01  0.4698893521E-01  0.3743406309E+01  0.1967380441E-16 -0.1938542931E+00  0.6869118003E+15  0.3751268894E+01  0.1999643782E-16 -0.2269544334E+00
  0.1646988935E+01  0.1000000000E+01  0.4698893521E-01  0.3275733308E+01 -0.1095245634E-15 -0.4354361114E+00  0.6869118003E+15  0.3279834081E+01 -0.1096618072E-15 -0.4618604957E+00
  0.1600000000E+01  0.1000000000E+01  0.4698893521E-01  0.1869681955E+01 -0.4703342624E-16  0.3080092726E+00  0.6869118003E+15  0.1875744447E+01 -0.4701135179E-16  0.2771947953E+00
  0.2000000000E+01  0.1000000000E+01  0.1429536967E+00 -0.2694601110E+00 -0.2238593442E-19  0.5055238617E+02  0.6869118003E+15 -0.2586483620E+00 -0.3221344302E-18  0.5046649496E+02
  0.1953011065E+01  0.1000000000E+01  0.1429536967E+00  0.1483711056E+01 -0.1696143725E-15  0.1217534139E+02  0.6869118003E+15  0.1488981749E+01 -0.1702221516E-15  0.1222514436E+02
  0.1857046303E+01  0.1000000000E+01  0.1429536967E+00  0.6954138335E+01 -0.2488990186E-15 -0.5554238273E+01  0.6869118003E+15  0.6984959753E+01 -0.2496607078E-15 -0.5534927720E+01
  0.1742953697E+01  0.1000000000E+01  0.1429536967E+00  0.3471737347E+01  0.1119586556E-15 -0.2303124688E+01  0.6869118003E+15  0.3486540815E+01  0.1118849056E-15 -0.2297907801E+01
  0.1646988935E+01  0.1000000000E+01  0.1429536967E+00  0.3758488156E+01 -0.1475633834E-16 -0.1160706233E+01  0.6869118003E+15  0.3762460583E+01 -0.1501014596E-16 -0.1138793356E+01
  0.1600000000E+01  0.1000000000E+01  0.1429536967E+00  0.9339145815E+00 -0.1616614742E-15 -0.1210720550E+01  0.6869118003E+15  0.9502492428E+00 -0.1623902594E-15 -0.1194423957E+01
  0.2000000000E+01  0.1000000000E+01  0.2570463033E+00  0.1960192533E-01  0.5608760454E-18  0.4992383316E+02  0.6869118003E+15  0.1901429810E-01  0.5428157938E-18  0.4991481319E+02