TITLE = "Generated from ../MESH/Convergence_0000000000.hmesh and Convergence_0000003700.hsol"
VARIABLES = "x","y","z","veloT_x","veloT_y","veloT_z","slr_4","velo_x","velo_y","velo_z"
ZONE I=6, J=6, K=1, F=POINT
  0.4000000000E+00  0.1000000000E+01  0.0000000000E+00 -0.1135479088E-01  0.2781074817E-19  0.7572777225E-02  0.6369333022E+15 -0.1159574565E-01  0.2810626060E-19  0.7337244825E-02
  0.3530110648E+00  0.1000000000E+01  0.0000000000E+00 -0.5486909413E-03  0.1165726835E-19 -0.2872400122E-03  0.6369333022E+15 -0.1443395789E-02  0.1017577421E-19 -0.2865423997E-03
  0.2570463033E+00  0.1000000000E+01  0.0000000000E+00  0.5924902551E-03  0.2131665324E-20  0.2217307531E-02  0.6369333022E+15 -0.2839553701E-03  0.1773486661E-20  0.2250732513E-02
  0.1429536967E+00  0.1000000000E+01  0.0000000000E+00 -0.4679202798E-03  0.5187020228E-21 -0.1073249685E-02  0.6369333022E+15 -0.1152940324E-02  0.4141116186E-21 -0.1084112470E-02
  0.4698893521E-01  0.1000000000E+01  0.0000000000E+00  0.2219369252E-02 -0.1985259048E-20  0.1758680261E-02  0.6369333022E+15  0.1594883891E-02 -0.2123901473E-20  0.1847666120E-02
  0.0000000000E+00  0.1000000000E+01  0.0000000000E+00 -0.7457605864E-02  0.1577054920E-22  0.1952203168E-02  0.6369333022E+15 -0.7500024264E-02  0.1429969569E-22  0.2061282830E-02
  0.4000000000E+00  0.1000000000E+01  0.4698893521E-01  0.2658660931E+00  0.2875984004E-17 -0.5653314338E-01  0.6369333022E+15  0.2658665094E+00  0.2876357442E-17 -0.4531687855E-01
  0.3530110648E+00  0.1000000000E+01  0.4698893521E-01  0.1283449694E+00  0.2589344530E-17 -0.1791917534E-01  0.6369333022E+15  0.1266487363E+00  0.2594527226E-17 -0.7113553255E-02
  0.2570463033E+00  0.1000000000E+01  0.4698893521E-01  0.1017149779E+00  0.9742493610E-18 -0.2397629062E-01  0.6369333022E+15  0.1004781659E+00  0.9897183119E-18 -0.1467890312E-01
  0.1429536967E+00  0.1000000000E+01  0.4698893521E-01  0.7017473591E-02  0.2345331993E-18 -0.1352083876E-01  0.6369333022E+15  0.6643691505E-02  0.2366159634E-18 -0.8714299241E-02
  0.4698893521E-01  0.1000000000E+01  0.4698893521E-01  0.1785671157E-03  0.4641044265E-19 -0.1040506898E-01  0.6369333022E+15 -0.5824302366E-03  0.4468951530E-19 -0.8831391219E-02
  0.0000000000E+00  0.1000000000E+01  0.4698893521E-01 -0.1804935888E-01  0.9732195180E-21  0.1991188932E-02  0.6369333022E+15 -0.1814509462E-01  0.9736249956E-21  0.2553923117E-02
  0.4000000000E+00  0.1000000000E+01  0.1429536967E+00  0.5829043275E+00  0.9268759762E-17 -0.1496698269E+00  0.6369333022E+15  0.5879173238E+00  0.9339809662E-17 -0.1197183299E+00
  0.3530110648E+00  0.1000000000E+01  0.1429536967E+00  0.3264020998E+00  0.5878643395E-17 -0.1853800201E+00  0.6369333022E+15  0.3283340560E+00  0.5699739220E-17 -0.1586955065E+00
  0.2570463033E+00  0.1000000000E+01  0.1429536967E+00  0.2295962070E+00  0.2150613447E-17 -0.1201360851E+00  0.6369333022E+15  0.2339480837E+00  0.2164133086E-17 -0.1011208037E+00
  0.1429536967E+00  0.1000000000E+01  0.1429536967E+00  0.3512624057E-01  0.7413074840E-18 -0.1231719144E+00  0.6369333022E+15  0.4114961972E-01  0.7469610098E-18 -0.1141752349E+00
  0.4698893521E-01  0.1000000000E+01  0.1429536967E+00 -0.5889334111E-02  0.1816948149E-18 -0.1357949985E-01  0.6369333022E+15 -0.3602213137E-02  0.1679498880E-18 -0.1083312212E-01
  0.0000000000E+00  0.1000000000E+01  0.1429536967E+00 -0.2125676591E-01  0.4477508496E-21 -0.1728433385E-02  0.6369333022E+15 -0.2122546560E-01  0.3061802417E-21 -0.8675724978E-03
  0.4000000000E+00  0.1000000000E+01  0.2570463033E+00  0.6565874483E+00  0.3053166763E-17 -0.4110657725E+00  0.6369333022E+15  0.6713907980E+00  0.3061985368E-17 -0.3694340093E+00
  0.3530110648E+00  0.1000000000E+01  0.2570463033E+00  0.4805412536E+00  0.1563860802E-17 -0.4531046462E+00  0.6369333022E+15  0.4946696038E+00  0.2080177847E-17 -0.4173549056E+00
  0.2570463033E+00  0.1000000000E+01  0.2570463033E+00  0.2888881370E+00  0.1632342109E-17 -0.3219630950E+00  0.6369333022E+15  0.3058983160E+00  0.1627455563E-17 -0.2988707295E+00
  0.1429536967E+00  0.1000000000E+01  0.2570463033E+00  0.7537723446E-01  0.1287646163E-17 -0.2956140222E+00  0.6369333022E+15  0.9185333157E-01  0.1284215365E-17 -0.2855741222E+00
  0.4698893521E-01  0.1000000000E+01  0.2570463033E+00  0.5141388924E-02  0.8982775880E-18 -0.5600647780E-01  0.6369333022E+15  0.1240376356E-01  0.9367006190E-18 -0.5305795763E-01
  0.0000000000E+00  0.1000000000E+01  0.2570463033E+00 -0.1410353263E-01 -0.4794168862E-20 -0.1805333864E-02  0.6369333022E+15 -0.1414946959E-01 -0.4282172007E-20 -0.7200953032E-03
  0.4000000000E+00  0.1000000000E+01  0.3530110648E+00  0.6764836085E+00  0.3434623688E-17 -0.6694022430E+00  0.6369333022E+15  0.7032079424E+00  0.3416552780E-17 -0.6279799696E+00
  0.3530110648E+00  0.1000000000E+01  0.3530110648E+00  0.4891514352E+00  0.3014766559E-17 -0.6785840490E+00  0.6369333022E+15  0.5165554021E+00  0.3023959100E-17 -0.6435273435E+00
  0.2570463033E+00  0.1000000000E+01  0.3530110648E+00  0.2846984020E+00  0.1968999967E-17 -0.5240826701E+00  0.6369333022E+15  0.3143134111E+00  0.1655982664E-17 -0.5024867820E+00
  0.1429536967E+00  0.1000000000E+01  0.3530110648E+00  0.6541228873E-01  0.1887174150E-17 -0.4331082827E+00  0.6369333022E+15  0.9096635216E-01  0.1810295584E-17 -0.4239556036E+00
  0.4698893521E-01  0.1000000000E+01  0.3530110648E+00  0.2268125562E-02  0.5732451995E-18 -0.1183740753E+00  0.6369333022E+15  0.1341529518E-01  0.5447710426E-18 -0.1151518735E+00
  0.0000000000E+00  0.1000000000E+01  0.3530110648E+00 -0.1434380546E-01  0.4106645845E-20 -0.2130984311E-02  0.6369333022E+15 -0.1430328934E-01  0.4573056275E-20 -0.8925191958E-03
  0.4000000000E+00  0.1000000000E+01  0.4000000000E+00  0.6497006104E+00  0.5546477803E-17 -0.7974532635E+00  0.6369333022E+15  0.6825113426E+00  0.5540997835E-17 -0.7598925553E+00
  0.3530110648E+00  0.1000000000E+01  0.4000000000E+00  0.5114002129E+00  0.4917741522E-17 -0.7979381608E+00  0.6369333022E+15  0.5456689688E+00  0.4857739223E-17 -0.7667765371E+00
  0.2570463033E+00  0.1000000000E+01  0.4000000000E+00  0.2782386083E+00  0.1588560777E-17 -0.6239856369E+00  0.6369333022E+15  0.3139340117E+00  0.1652633916E-17 -0.6063395644E+00
  0.1429536967E+00  0.1000000000E+01  0.4000000000E+00  0.6882793757E-01  0.1866813671E-17 -0.5009947997E+00  0.6369333022E+15  0.9777377104E-01  0.1952532951E-17 -0.4934982830E+00
  0.4698893521E-01  0.1000000000E+01  0.4000000000E+00 -0.3122091269E-02  0.5455793394E-18 -0.1457315947E+00  0.6369333022E+15  0.9676399025E-02  0.5320463134E-18 -0.1428485396E+00
  0.0000000000E+00  0.1000000000E+01  0.4000000000E+00 -0.6877932205E-02  0.8256590433E-20 -0.3554317779E-02  0.6369333022E+15 -0.6608420361E-02  0.8369530532E-20 -0.2371007517E-02
ZONE I=6, J=6, K=1, F=POINT
  0.8000000000E+00  0.1000000000E+01  0.0000000000E+00  0.1747365866E-01 -0.8322235397E-19 -0.1166362554E-01  0.6369333022E+15  0.1745587030E-01 -0.8596064686E-19 -0.1200575935E-01
  0.7530110648E+00  0.1000000000E+01  0.0000000000E+00  0.1651925330E-02  0.7760845570E-19  0.5859327296E-02  0.6369333022E+15  0.1766312733E-02  0.7715044455E-19  0.5754204190E-02
  0.6570463033E+00  0.1000000000E+01  0.0000000000E+00 -0.7072496553E-03  0.2021559967E-19  0.2718007130E-03  0.6369333022E+15 -0.7396157366E-03  0.1790106285E-19  0.2398749548E-03
  0.5429536967E+00  0.1000000000E+01  0.0000000000E+00  0.7389139970E-03  0.2706427411E-19  0.6877784321E-02  0.6369333022E+15  0.8329707450E-03  0.2694716015E-19  0.6844855750E-02
  0.4469889352E+00  0.1000000000E+01  0.0000000000E+00 -0.1913384390E-02 -0.3315030045E-19  0.6189879732E-03  0.6369333022E+15 -0.1846680558E-02 -0.3347581538E-19  0.6075011209E-03
  0.4000000000E+00  0.1000000000E+01  0.0000000000E+00  0.1498635557E-01  0.3147833159E-19  0.7256303024E-02  0.6369333022E+15  0.1461668041E-01  0.3182027200E-19  0.7038881054E-02
  0.8000000000E+00  0.1000000000E+01  0.4698893521E-01  0.3176456198E+00 -0.2434688332E-16  0.3712840666E-02  0.6369333022E+15  0.3165779038E+00 -0.2433007681E-16  0.2472267448E-01
  0.7530110648E+00  0.1000000000E+01  0.4698893521E-01  0.5138726569E+00 -0.2382183371E-16 -0.5786637492E-01  0.6369333022E+15  0.5130632141E+00 -0.2379937069E-16 -0.3632927971E-01
  0.6570463033E+00  0.1000000000E+01  0.4698893521E-01  0.2965896946E+00 -0.4953769509E-17 -0.3210844349E-01  0.6369333022E+15  0.2966796490E+00 -0.4923300437E-17 -0.1103253413E-01
  0.5429536967E+00  0.1000000000E+01  0.4698893521E-01  0.3286764472E+00  0.4142707878E-17 -0.2143867875E-01  0.6369333022E+15  0.3298278311E+00  0.4173574582E-17 -0.4122976685E-02
  0.4469889352E+00  0.1000000000E+01  0.4698893521E-01  0.2026586189E+00  0.3826303020E-17 -0.1372126548E-01  0.6369333022E+15  0.2035921145E+00  0.3809350289E-17 -0.3822195809E-03
  0.4000000000E+00  0.1000000000E+01  0.4698893521E-01  0.3076114247E+00  0.2636541498E-17 -0.5728284610E-01  0.6369333022E+15  0.3077158341E+00  0.2636157541E-17 -0.4606406005E-01
  0.8000000000E+00  0.1000000000E+01  0.1429536967E+00  0.1011981853E+01 -0.5526240166E-16 -0.3848491227E+00  0.6369333022E+15  0.1007254961E+01 -0.5538024351E-16 -0.3436684268E+00
  0.7530110648E+00  0.1000000000E+01  0.1429536967E+00  0.1312884190E+01 -0.3521967200E-16 -0.2429219245E+00  0.6369333022E+15  0.1310703828E+01 -0.3549308824E-16 -0.1999266834E+00
  0.6570463033E+00  0.1000000000E+01  0.1429536967E+00  0.8762403978E+00 -0.4933950636E-17 -0.2402158522E+00  0.6369333022E+15  0.8784833352E+00 -0.4995880085E-17 -0.1969502086E+00
  0.5429536967E+00  0.1000000000E+01  0.1429536967E+00  0.8108360295E+00  0.8904620701E-17 -0.9678636958E-01  0.6369333022E+15  0.8169858004E+00  0.9104496075E-17 -0.5751852279E-01
  0.4469889352E+00  0.1000000000E+01  0.1429536967E+00  0.5146383528E+00  0.9372385760E-17 -0.1747898025E+00  0.6369333022E+15  0.5214362235E+00  0.9162429163E-17 -0.1415419791E+00
  0.4000000000E+00  0.1000000000E+01  0.1429536967E+00  0.6348300299E+00  0.9985861308E-17 -0.1491273505E+00  0.6369333022E+15  0.6399662919E+00  0.1006212070E-16 -0.1191773833E+00
  0.8000000000E+00  0.1000000000E+01  0.2570463033E+00  0.1968422472E+01 -0.1581448318E-16 -0.9247344819E+00  0.6369333022E+15  0.1955515520E+01 -0.1583925318E-16 -0.8807463522E+00
  0.7530110648E+00  0.1000000000E+01  0.2570463033E+00  0.1846460088E+01 -0.1246492869E-16 -0.6746650788E+00  0.6369333022E+15  0.1839382967E+01 -0.1174035805E-16 -0.6266406679E+00
  0.6570463033E+00  0.1000000000E+01  0.2570463033E+00  0.1391554806E+01 -0.5350380057E-17 -0.6149874660E+00  0.6369333022E+15  0.1394170038E+01 -0.5431066756E-17 -0.5636215208E+00
  0.5429536967E+00  0.1000000000E+01  0.2570463033E+00  0.1059812259E+01  0.1642276835E-17 -0.3595056513E+00  0.6369333022E+15  0.1070772244E+01  0.1810890782E-17 -0.3094744877E+00
  0.4469889352E+00  0.1000000000E+01  0.2570463033E+00  0.7325824174E+00  0.2286766977E-17 -0.4605682500E+00  0.6369333022E+15  0.7473024311E+00  0.2865727905E-17 -0.4151816666E+00
  0.4000000000E+00  0.1000000000E+01  0.2570463033E+00  0.6874197827E+00  0.3078037350E-17 -0.4104182284E+00  0.6369333022E+15  0.7022009075E+00  0.3088002360E-17 -0.3688322090E+00
  0.8000000000E+00  0.1000000000E+01  0.3530110648E+00  0.2141963444E+01 -0.1479633139E-17 -0.1368450160E+01  0.6369333022E+15  0.2117793748E+01 -0.1442629763E-17 -0.1322103021E+01
  0.7530110648E+00  0.1000000000E+01  0.3530110648E+00  0.2049111206E+01  0.4513032458E-17 -0.1152147234E+01  0.6369333022E+15  0.2035081673E+01  0.3726109575E-17 -0.1101057273E+01
  0.6570463033E+00  0.1000000000E+01  0.3530110648E+00  0.1554484696E+01 -0.1998243138E-17 -0.9785647151E+00  0.6369333022E+15  0.1556120424E+01 -0.2825599947E-17 -0.9240511272E+00
  0.5429536967E+00  0.1000000000E+01  0.3530110648E+00  0.1153139964E+01 -0.1533152936E-17 -0.6772941112E+00  0.6369333022E+15  0.1167170673E+01 -0.2841504317E-17 -0.6246049224E+00
  0.4469889352E+00  0.1000000000E+01  0.3530110648E+00  0.7480591271E+00  0.3341833870E-17 -0.7151844067E+00  0.6369333022E+15  0.7701560311E+00  0.2978923064E-17 -0.6683098550E+00
  0.4000000000E+00  0.1000000000E+01  0.3530110648E+00  0.7094859756E+00  0.3411500375E-17 -0.6692007418E+00  0.6369333022E+15  0.7355966714E+00  0.3391633130E-17 -0.6277734372E+00
  0.8000000000E+00  0.1000000000E+01  0.4000000000E+00  0.2214415334E+01 -0.7324381398E-17 -0.1637716287E+01  0.6369333022E+15  0.2183950377E+01 -0.7320704617E-17 -0.1587911958E+01
  0.7530110648E+00  0.1000000000E+01  0.4000000000E+00  0.1997056698E+01 -0.3419639864E-17 -0.1360005998E+01  0.6369333022E+15  0.1980092373E+01 -0.3590145731E-17 -0.1305563957E+01
  0.6570463033E+00  0.1000000000E+01  0.4000000000E+00  0.1553868974E+01 -0.1674416674E-17 -0.1173354210E+01  0.6369333022E+15  0.1555631821E+01 -0.1403116007E-17 -0.1116291877E+01
  0.5429536967E+00  0.1000000000E+01  0.4000000000E+00  0.1130015644E+01  0.4757992615E-17 -0.8811368016E+00  0.6369333022E+15  0.1146101468E+01  0.5726773232E-17 -0.8280658259E+00
  0.4469889352E+00  0.1000000000E+01  0.4000000000E+00  0.7933495977E+00  0.5727973327E-17 -0.8670025240E+00  0.6369333022E+15  0.8205012887E+00  0.6101448639E-17 -0.8223343576E+00
  0.4000000000E+00  0.1000000000E+01  0.4000000000E+00  0.6620028158E+00  0.5569295433E-17 -0.7967050360E+00  0.6369333022E+15  0.6946580439E+00  0.5563626278E-17 -0.7591479592E+00
ZONE I=6, J=6, K=1, F=POINT
  0.1200000000E+01  0.1000000000E+01  0.0000000000E+00 -0.3297740891E-01  0.5673457705E-19  0.3728364463E-01  0.6369333022E+15 -0.3263386382E-01  0.5827630189E-19  0.3659447635E-01
  0.1153011065E+01  0.1000000000E+01  0.0000000000E+00 -0.5875609075E-02 -0.2518044140E-18 -0.9671613604E-02  0.6369333022E+15 -0.5830172520E-02 -0.2578432177E-18 -0.9738154424E-02
  0.1057046303E+01  0.1000000000E+01  0.0000000000E+00  0.1684367330E-02  0.7911175786E-20  0.5950448066E-02  0.6369333022E+15  0.1629780827E-02  0.5715255318E-20  0.6017305002E-02
  0.9429536967E+00  0.1000000000E+01  0.0000000000E+00 -0.2431076786E-02  0.7464535437E-20 -0.8200691329E-02  0.6369333022E+15 -0.2516145680E-02  0.5271628309E-20 -0.8203513806E-02
  0.8469889352E+00  0.1000000000E+01  0.0000000000E+00  0.3296755849E-02 -0.1863000463E-19  0.5320389401E-02  0.6369333022E+15  0.3074021438E-02 -0.2131294914E-19  0.5190785549E-02
  0.8000000000E+00  0.1000000000E+01  0.0000000000E+00 -0.2754713297E-01 -0.9283440500E-19 -0.1114881055E-01  0.6369333022E+15 -0.2770443648E-01 -0.9579726080E-19 -0.1146100168E-01
  0.1200000000E+01  0.1000000000E+01  0.4698893521E-01  0.2147682153E+01 -0.4215993598E-16 -0.2016955144E+00  0.6369333022E+15  0.2146311556E+01 -0.4207585110E-16 -0.1988415277E+00
  0.1153011065E+01  0.1000000000E+01  0.4698893521E-01  0.1465047643E+01 -0.2668667437E-16 -0.5702533228E-01  0.6369333022E+15  0.1462490415E+01 -0.2661026538E-16 -0.5200332228E-01
  0.1057046303E+01  0.1000000000E+01  0.4698893521E-01  0.1335133042E+01 -0.1300329435E-16 -0.9597558957E-01  0.6369333022E+15  0.1332526681E+01 -0.1301920943E-16 -0.8581541917E-01
  0.9429536967E+00  0.1000000000E+01  0.4698893521E-01  0.7373771830E+00 -0.1555654970E-16 -0.8745627132E-01  0.6369333022E+15  0.7357745247E+00 -0.1549782617E-16 -0.7138326049E-01
  0.8469889352E+00  0.1000000000E+01  0.4698893521E-01  0.6416925055E+00 -0.2844959770E-16 -0.8352446531E-01  0.6369333022E+15  0.6404116805E+00 -0.2840874796E-16 -0.6385402686E-01
  0.8000000000E+00  0.1000000000E+01  0.4698893521E-01  0.2568536393E+00 -0.2365133118E-16  0.5771971418E-02  0.6369333022E+15  0.2560363161E+00 -0.2364254042E-16  0.2672646152E-01
  0.1200000000E+01  0.1000000000E+01  0.1429536967E+00  0.4925980036E+01 -0.5933347725E-16 -0.6123578222E+00  0.6369333022E+15  0.4923798026E+01 -0.5916106932E-16 -0.6017190470E+00
  0.1153011065E+01  0.1000000000E+01  0.1429536967E+00  0.3484565424E+01 -0.6898195848E-16 -0.8193111196E+00  0.6369333022E+15  0.3477582568E+01 -0.6951045091E-16 -0.8063161223E+00
  0.1057046303E+01  0.1000000000E+01  0.1429536967E+00  0.3124633095E+01 -0.4099157948E-16 -0.6094467291E+00  0.6369333022E+15  0.3114853319E+01 -0.4096186657E-16 -0.5902932821E+00
  0.9429536967E+00  0.1000000000E+01  0.1429536967E+00  0.1895199262E+01 -0.3647770746E-16 -0.7298726208E+00  0.6369333022E+15  0.1886397470E+01 -0.3645005456E-16 -0.6995990126E+00
  0.8469889352E+00  0.1000000000E+01  0.1429536967E+00  0.1630713113E+01 -0.5203639137E-16 -0.3993991566E+00  0.6369333022E+15  0.1624542291E+01 -0.5208147945E-16 -0.3609764416E+00
  0.8000000000E+00  0.1000000000E+01  0.1429536967E+00  0.9283904208E+00 -0.5747558231E-16 -0.3864347415E+00  0.6369333022E+15  0.9249354959E+00 -0.5761868268E-16 -0.3452464670E+00
  0.1200000000E+01  0.1000000000E+01  0.2570463033E+00  0.5018481343E+01 -0.9266682382E-17 -0.1695709570E+01  0.6369333022E+15  0.5006598984E+01 -0.9213656592E-17 -0.1684898996E+01
  0.1153011065E+01  0.1000000000E+01  0.2570463033E+00  0.4508152602E+01 -0.4487235763E-16 -0.1939400812E+01  0.6369333022E+15  0.4495115701E+01 -0.4320658788E-16 -0.1926622740E+01
  0.1057046303E+01  0.1000000000E+01  0.2570463033E+00  0.3722190143E+01 -0.3633264602E-16 -0.1544382149E+01  0.6369333022E+15  0.3704192500E+01 -0.3637579008E-16 -0.1525173023E+01
  0.9429536967E+00  0.1000000000E+01  0.2570463033E+00  0.2815281852E+01 -0.3578757495E-16 -0.1602516161E+01  0.6369333022E+15  0.2794785691E+01 -0.3467210302E-16 -0.1574283654E+01
  0.8469889352E+00  0.1000000000E+01  0.2570463033E+00  0.2313591798E+01 -0.1763507159E-16 -0.9930408652E+00  0.6369333022E+15  0.2297403382E+01 -0.1767567362E-16 -0.9542012556E+00
  0.8000000000E+00  0.1000000000E+01  0.2570463033E+00  0.1930723428E+01 -0.1598793926E-16 -0.9272132575E+00  0.6369333022E+15  0.1918656633E+01 -0.1599303943E-16 -0.8828817674E+00
  0.1200000000E+01  0.1000000000E+01  0.3530110648E+00  0.5157339029E+01  0.2832550522E-16 -0.2806838173E+01  0.6369333022E+15  0.5142093369E+01  0.2835890584E-16 -0.2801559990E+01
  0.1153011065E+01  0.1000000000E+01  0.3530110648E+00  0.4469589027E+01  0.7569353433E-17 -0.2720066253E+01  0.6369333022E+15  0.4448765465E+01  0.7870112435E-17 -0.2710731144E+01
  0.1057046303E+01  0.1000000000E+01  0.3530110648E+00  0.3807815833E+01 -0.1282618045E-16 -0.2336812722E+01  0.6369333022E+15  0.3783631618E+01 -0.1304683837E-16 -0.2319036965E+01
  0.9429536967E+00  0.1000000000E+01  0.3530110648E+00  0.2945312467E+01 -0.2014179757E-16 -0.2137742753E+01  0.6369333022E+15  0.2916173026E+01 -0.1937201284E-16 -0.2112092873E+01
  0.8469889352E+00  0.1000000000E+01  0.3530110648E+00  0.2544454969E+01 -0.3855330179E-17 -0.1549592177E+01  0.6369333022E+15  0.2514409264E+01 -0.5069968771E-17 -0.1510892352E+01
  0.8000000000E+00  0.1000000000E+01  0.3530110648E+00  0.2095394939E+01 -0.1436451139E-17 -0.1368673934E+01  0.6369333022E+15  0.2072284542E+01 -0.1383343195E-17 -0.1322380270E+01
  0.1200000000E+01  0.1000000000E+01  0.4000000000E+00  0.4809577742E+01  0.3386579947E-16 -0.3100076082E+01  0.6369333022E+15  0.4790244480E+01  0.3388831028E-16 -0.3093122340E+01
  0.1153011065E+01  0.1000000000E+01  0.4000000000E+00  0.4486381939E+01  0.2490906043E-16 -0.3194282797E+01  0.6369333022E+15  0.4460682729E+01  0.2458118990E-16 -0.3183886895E+01
  0.1057046303E+01  0.1000000000E+01  0.4000000000E+00  0.3693830530E+01 -0.1321522846E-17 -0.2676862315E+01  0.6369333022E+15  0.3666536016E+01 -0.1365455547E-17 -0.2658210243E+01
  0.9429536967E+00  0.1000000000E+01  0.4000000000E+00  0.2966253508E+01 -0.1886702891E-16 -0.2450622628E+01  0.6369333022E+15  0.2931888966E+01 -0.1783161207E-16 -0.2421812607E+01
  0.8469889352E+00  0.1000000000E+01  0.4000000000E+00  0.2464166008E+01 -0.1208821060E-16 -0.1784322903E+01  0.6369333022E+15  0.2426269909E+01 -0.1258251409E-16 -0.1741011341E+01
  0.8000000000E+00  0.1000000000E+01  0.4000000000E+00  0.2210270053E+01 -0.7309879381E-17 -0.1640975518E+01  0.6369333022E+15  0.2180292000E+01 -0.7299809765E-17 -0.1590788949E+01
ZONE I=6, J=6, K=1, F=POINT
  0.1600000000E+01  0.1000000000E+01  0.0000000000E+00  0.1290880860E+00 -0.9084491445E-18 -0.7204446415E-01  0.6369333022E+15  0.1284889716E+00 -0.1028167671E-17 -0.7151551445E-01
  0.1553011065E+01  0.1000000000E+01  0.0000000000E+00  0.8808328662E-02 -0.1236456918E-17  0.4523851248E-01  0.6369333022E+15  0.9091435291E-02 -0.1277893369E-17  0.4516543237E-01
  0.1457046303E+01  0.1000000000E+01  0.0000000000E+00 -0.9060648201E-02 -0.4558976672E-19 -0.3227372826E-02  0.6369333022E+15 -0.8832539507E-02 -0.7206379681E-19 -0.3280098360E-02
  0.1342953697E+01  0.1000000000E+01  0.0000000000E+00  0.3599496704E-02  0.3079414150E-18  0.2983516613E-01  0.6369333022E+15  0.3970998101E-02  0.3300192238E-18  0.2980123953E-01
  0.1246988935E+01  0.1000000000E+01  0.0000000000E+00 -0.9121406763E-02  0.1178204041E-18 -0.8086998830E-02  0.6369333022E+15 -0.8759644694E-02  0.1253782615E-18 -0.8089067432E-02
  0.1200000000E+01  0.1000000000E+01  0.0000000000E+00  0.5640937391E-01  0.6052687369E-19  0.3733994959E-01  0.6369333022E+15  0.5636699767E-01  0.6220813128E-19  0.3663769068E-01
  0.1600000000E+01  0.1000000000E+01  0.4698893521E-01  0.2989158150E+01 -0.8890372832E-16  0.2181786377E+00  0.6369333022E+15  0.2986459041E+01 -0.8884448460E-16  0.2219766057E+00
  0.1553011065E+01  0.1000000000E+01  0.4698893521E-01  0.3459209871E+01 -0.4453748262E-16 -0.2841202751E+00  0.6369333022E+15  0.3458980316E+01 -0.4454308108E-16 -0.2819708796E+00
  0.1457046303E+01  0.1000000000E+01  0.4698893521E-01  0.2464155701E+01 -0.4743098327E-17 -0.9123049355E-01  0.6369333022E+15  0.2463205103E+01 -0.4705979805E-17 -0.8955638458E-01
  0.1342953697E+01  0.1000000000E+01  0.4698893521E-01  0.2445807291E+01  0.2867509810E-16 -0.6029155625E-01  0.6369333022E+15  0.2444776171E+01  0.2866558982E-16 -0.5844580557E-01
  0.1246988935E+01  0.1000000000E+01  0.4698893521E-01  0.1875037445E+01 -0.7077128586E-17 -0.2597432060E-01  0.6369333022E+15  0.1874390650E+01 -0.7099056305E-17 -0.2385389968E-01
  0.1200000000E+01  0.1000000000E+01  0.4698893521E-01  0.2245435918E+01 -0.4635084432E-16 -0.2073732117E+00  0.6369333022E+15  0.2242156182E+01 -0.4624067527E-16 -0.2041309796E+00
  0.1600000000E+01  0.1000000000E+01  0.1429536967E+00  0.6245285441E+01 -0.2672830397E-15 -0.1870644713E+01  0.6369333022E+15  0.6230309447E+01 -0.2672087944E-15 -0.1872801810E+01
  0.1553011065E+01  0.1000000000E+01  0.1429536967E+00  0.7898945384E+01 -0.1441924225E-15 -0.1026421678E+01  0.6369333022E+15  0.7898657101E+01 -0.1443318897E-15 -0.1028017266E+01
  0.1457046303E+01  0.1000000000E+01  0.1429536967E+00  0.5781116780E+01  0.3151995983E-16 -0.9793048570E+00  0.6369333022E+15  0.5780375215E+01  0.3128209269E-16 -0.9795872029E+00
  0.1342953697E+01  0.1000000000E+01  0.1429536967E+00  0.5711098579E+01  0.1008054665E-15 -0.2190817617E+00  0.6369333022E+15  0.5708357326E+01  0.1007215126E-15 -0.2170123126E+00
  0.1246988935E+01  0.1000000000E+01  0.1429536967E+00  0.4361441918E+01  0.2600488786E-16 -0.7406053783E+00  0.6369333022E+15  0.4357555161E+01  0.2641832721E-16 -0.7326538669E+00
  0.1200000000E+01  0.1000000000E+01  0.1429536967E+00  0.5091508645E+01 -0.6348777555E-16 -0.6070518921E+00  0.6369333022E+15  0.5079109300E+01 -0.6320722925E-16 -0.5970561109E+00
  0.1600000000E+01  0.1000000000E+01  0.2570463033E+00  0.1097228190E+02  0.9637010381E-16 -0.3851561890E+01  0.6369333022E+15  0.1097729137E+02  0.9630673608E-16 -0.3862001661E+01
  0.1553011065E+01  0.1000000000E+01  0.2570463033E+00  0.9841209533E+01  0.1204082991E-15 -0.2740276628E+01  0.6369333022E+15  0.9840011066E+01  0.1202368535E-15 -0.2743979682E+01
  0.1457046303E+01  0.1000000000E+01  0.2570463033E+00  0.8383399877E+01  0.1840876329E-15 -0.2534938860E+01  0.6369333022E+15  0.8380083022E+01  0.1837833197E-15 -0.2534889914E+01
  0.1342953697E+01  0.1000000000E+01  0.2570463033E+00  0.6705937087E+01  0.1325468493E-15 -0.1277321036E+01  0.6369333022E+15  0.6699677004E+01  0.1321679887E-15 -0.1273137492E+01
  0.1246988935E+01  0.1000000000E+01  0.2570463033E+00  0.5471931264E+01  0.4135125902E-16 -0.1939768825E+01  0.6369333022E+15  0.5460605154E+01  0.4088695523E-16 -0.1930936639E+01
  0.1200000000E+01  0.1000000000E+01  0.2570463033E+00  0.5057820806E+01 -0.9574337113E-17 -0.1686549688E+01  0.6369333022E+15  0.5045878382E+01 -0.9504660198E-17 -0.1678260252E+01
  0.1600000000E+01  0.1000000000E+01  0.3530110648E+00  0.9285355752E+01  0.1913255432E-15 -0.4513330609E+01  0.6369333022E+15  0.9278656490E+01  0.1912738795E-15 -0.4511250987E+01
  0.1553011065E+01  0.1000000000E+01  0.3530110648E+00  0.9400392656E+01  0.1993809776E-15 -0.4390067246E+01  0.6369333022E+15  0.9395396665E+01  0.1993287171E-15 -0.4388329450E+01
  0.1457046303E+01  0.1000000000E+01  0.3530110648E+00  0.8072942236E+01  0.1949470317E-15 -0.3830112317E+01  0.6369333022E+15  0.8066230797E+01  0.1943828154E-15 -0.3826151627E+01
  0.1342953697E+01  0.1000000000E+01  0.3530110648E+00  0.6724198831E+01  0.1484268767E-15 -0.2840360800E+01  0.6369333022E+15  0.6716318791E+01  0.1481214327E-15 -0.2833446908E+01
  0.1246988935E+01  0.1000000000E+01  0.3530110648E+00  0.5320973869E+01  0.6131666745E-16 -0.2892683732E+01  0.6369333022E+15  0.5309522545E+01  0.6172817032E-16 -0.2887391720E+01
  0.1200000000E+01  0.1000000000E+01  0.3530110648E+00  0.5234208226E+01  0.2842402985E-16 -0.2807396307E+01  0.6369333022E+15  0.5215553043E+01  0.2842911644E-16 -0.2801748486E+01
  0.1600000000E+01  0.1000000000E+01  0.4000000000E+00  0.9391077083E+01  0.1909776708E-15 -0.5314715517E+01  0.6369333022E+15  0.9387460397E+01  0.1909062206E-15 -0.5312346130E+01
  0.1553011065E+01  0.1000000000E+01  0.4000000000E+00  0.8643829811E+01  0.2102961482E-15 -0.4492058459E+01  0.6369333022E+15  0.8640594217E+01  0.2104895352E-15 -0.4488024406E+01
  0.1457046303E+01  0.1000000000E+01  0.4000000000E+00  0.7885407671E+01  0.1866270369E-15 -0.4421545496E+01  0.6369333022E+15  0.7876395703E+01  0.1867722450E-15 -0.4416243866E+01
  0.1342953697E+01  0.1000000000E+01  0.4000000000E+00  0.6386090881E+01  0.1554273900E-15 -0.3262923674E+01  0.6369333022E+15  0.6379579169E+01  0.1550502845E-15 -0.3257897746E+01
  0.1246988935E+01  0.1000000000E+01  0.4000000000E+00  0.5352702317E+01  0.6163867000E-16 -0.3457076342E+01  0.6369333022E+15  0.5341098451E+01  0.6180114175E-16 -0.3450840092E+01
  0.1200000000E+01  0.1000000000E+01  0.4000000000E+00  0.4782978392E+01  0.3412295315E-16 -0.3088447908E+01  0.6369333022E+15  0.4765136322E+01  0.3412705226E-16 -0.3083995523E+01
ZONE I=6, J=6, K=1, F=POINT
  0.2000000000E+01  0.1000000000E+01  0.0000000000E+00  0.2402172012E+01  0.7367740863E-19  0.2123391184E+02  0.6369333022E+15  0.2430040051E+01  0.9427603087E-19  0.2215505873E+02
  0.1953011065E+01  0.1000000000E+01  0.0000000000E+00  0.1290964723E+01 -0.3734312897E-16 -0.1376490200E+00  0.6369333022E+15  0.1294925723E+01 -0.3608112445E-16 -0.1507889924E+00
  0.1857046303E+01  0.1000000000E+01  0.0000000000E+00 -0.3077168600E+00 -0.1886971593E-16  0.1519112650E+00  0.6369333022E+15 -0.3084412469E+00 -0.1936246409E-16  0.1503999136E+00
  0.1742953697E+01  0.1000000000E+01  0.0000000000E+00  0.1332914950E+00  0.2221281098E-18 -0.3741952309E-01  0.6369333022E+15  0.1336694092E+00  0.1109019302E-18 -0.3713610449E-01
  0.1646988935E+01  0.1000000000E+01  0.0000000000E+00 -0.1285699110E+00  0.3351819419E-18  0.6054152163E-01  0.6369333022E+15 -0.1284258915E+00  0.3017167141E-18  0.5966867582E-01
  0.1600000000E+01  0.1000000000E+01  0.0000000000E+00  0.8719471553E-01 -0.9870660206E-18 -0.8417969056E-01  0.6369333022E+15  0.8682204913E-01 -0.1108929500E-17 -0.8228831143E-01
  0.2000000000E+01  0.1000000000E+01  0.4698893521E-01 -0.1212624363E-01  0.7457073996E-18  0.4848196801E+02  0.6369333022E+15 -0.5482750443E-01  0.6854294170E-18  0.4865686181E+02
  0.1953011065E+01  0.1000000000E+01  0.4698893521E-01  0.1096158200E+02  0.1371174933E-15  0.1466412618E+01  0.6369333022E+15  0.1094829221E+02  0.1358883072E-15  0.1483119421E+01
  0.1857046303E+01  0.1000000000E+01  0.4698893521E-01  0.1166520942E+02  0.2913529424E-15 -0.1886259769E+01  0.6369333022E+15  0.1166508788E+02  0.2914897923E-15 -0.1881802440E+01
  0.1742953697E+01  0.1000000000E+01  0.4698893521E-01  0.5788196026E+01 -0.3772598084E-16 -0.6526314742E+00  0.6369333022E+15  0.5789917208E+01 -0.3737500507E-16 -0.6498273613E+00
  0.1646988935E+01  0.1000000000E+01  0.4698893521E-01  0.4464557958E+01 -0.1217647641E-15 -0.6382521481E+00  0.6369333022E+15  0.4461381817E+01 -0.1217984394E-15 -0.6325192932E+00
  0.1600000000E+01  0.1000000000E+01  0.4698893521E-01  0.2825329787E+01 -0.8605608053E-16  0.2039827562E+00  0.6369333022E+15  0.2832060067E+01 -0.8581785256E-16  0.2024792430E+00
  0.2000000000E+01  0.1000000000E+01  0.1429536967E+00 -0.2816166365E+00  0.2725903139E-17  0.5050230193E+02  0.6369333022E+15 -0.2571135847E+00  0.2755139416E-17  0.5043926371E+02
  0.1953011065E+01  0.1000000000E+01  0.1429536967E+00  0.2796169731E+01 -0.5136590935E-15  0.1641533754E+02  0.6369333022E+15  0.2779967966E+01 -0.5137765608E-15  0.1645154733E+02
  0.1857046303E+01  0.1000000000E+01  0.1429536967E+00  0.1274493870E+02 -0.2585509226E-15 -0.3593970319E+01  0.6369333022E+15  0.1273856553E+02 -0.2584086595E-15 -0.3587107259E+01
  0.1742953697E+01  0.1000000000E+01  0.1429536967E+00  0.9985730488E+01 -0.1995846392E-16 -0.4115598400E+01  0.6369333022E+15  0.9985874671E+01 -0.2047232197E-16 -0.4117196572E+01
  0.1646988935E+01  0.1000000000E+01  0.1429536967E+00  0.9266021738E+01 -0.1594192916E-15 -0.2126596331E+01  0.6369333022E+15  0.9265605742E+01 -0.1591608849E-15 -0.2126842003E+01
  0.1600000000E+01  0.1000000000E+01  0.1429536967E+00  0.5874617056E+01 -0.2838016050E-15 -0.1870558033E+01  0.6369333022E+15  0.5899158532E+01 -0.2841219232E-15 -0.1877404769E+01
  0.2000000000E+01  0.1000000000E+01  0.2570463033E+00  0.1921875007E-01  0.1108510598E-17  0.4987219860E+02  0.6369333022E+15  0.1822037166E-01  0.1068873642E-17  0.4987704593E+02