TITLE = "Generated from ../MESH/Convergence_0000000000.hmesh and Convergence_0000003100.hsol"
VARIABLES = "x","y","z","veloT_x","veloT_y","veloT_z","slr_4","velo_x","velo_y","velo_z"
ZONE I=6, J=6, K=1, F=POINT
  0.4000000000E+00  0.1000000000E+01  0.0000000000E+00 -0.1109934557E-01  0.2809094321E-19  0.7042436112E-02  0.6341799524E+15 -0.1121464551E-01  0.2833474833E-19  0.7431798908E-02
  0.3530110648E+00  0.1000000000E+01  0.0000000000E+00 -0.7513539164E-03  0.1115098461E-19 -0.4364081856E-03  0.6341799524E+15 -0.8786438172E-03  0.1098651366E-19 -0.3354065221E-03
  0.2570463033E+00  0.1000000000E+01  0.0000000000E+00  0.4955668233E-03  0.2011957150E-20  0.2219773852E-02  0.6341799524E+15  0.4010540972E-03  0.2053224164E-20  0.2258783432E-02
  0.1429536967E+00  0.1000000000E+01  0.0000000000E+00 -0.4456082691E-03  0.4732177941E-21 -0.1106896547E-02  0.6341799524E+15 -0.4083219414E-03  0.4529905057E-21 -0.1067547719E-02
  0.4698893521E-01  0.1000000000E+01  0.0000000000E+00  0.2084438989E-02 -0.2140628688E-20  0.1985192838E-02  0.6341799524E+15  0.2170876911E-02 -0.2081355878E-20  0.1999025899E-02
  0.0000000000E+00  0.1000000000E+01  0.0000000000E+00 -0.7425756202E-02  0.1556839810E-22  0.2083310960E-02  0.6341799524E+15 -0.7410229445E-02  0.1468512371E-22  0.2085344847E-02
  0.4000000000E+00  0.1000000000E+01  0.4698893521E-01  0.2655102123E+00  0.2788837484E-17 -0.5560840590E-01  0.6341799524E+15  0.2660518401E+00  0.2786120560E-17 -0.4654613058E-01
  0.3530110648E+00  0.1000000000E+01  0.4698893521E-01  0.1273241416E+00  0.2508082161E-17 -0.1767124492E-01  0.6341799524E+15  0.1278728289E+00  0.2492180546E-17 -0.8891580233E-02
  0.2570463033E+00  0.1000000000E+01  0.4698893521E-01  0.1011334868E+00  0.8977155909E-18 -0.2469964154E-01  0.6341799524E+15  0.1020150093E+00  0.9066579067E-18 -0.1800306273E-01
  0.1429536967E+00  0.1000000000E+01  0.4698893521E-01  0.6262132680E-02  0.1847612553E-18 -0.1378155536E-01  0.6341799524E+15  0.7844921875E-02  0.1910733779E-18 -0.1081216542E-01
  0.4698893521E-01  0.1000000000E+01  0.4698893521E-01 -0.1344899402E-02  0.2979778725E-19 -0.9820971064E-02  0.6341799524E+15 -0.1683934360E-03  0.3069972721E-19 -0.1004556389E-01
  0.0000000000E+00  0.1000000000E+01  0.4698893521E-01 -0.1802480401E-01  0.9764829782E-21  0.1870798010E-02  0.6341799524E+15 -0.1799659795E-01  0.9661255321E-21  0.1873542628E-02
  0.4000000000E+00  0.1000000000E+01  0.1429536967E+00  0.5756471495E+00  0.9016793256E-17 -0.1435999250E+00  0.6341799524E+15  0.5781100935E+00  0.9053893176E-17 -0.1273408188E+00
  0.3530110648E+00  0.1000000000E+01  0.1429536967E+00  0.3205952450E+00  0.5589056460E-17 -0.1791591747E+00  0.6341799524E+15  0.3234823123E+00  0.5488761431E-17 -0.1645534043E+00
  0.2570463033E+00  0.1000000000E+01  0.1429536967E+00  0.2271336576E+00  0.1916368303E-17 -0.1161976854E+00  0.6341799524E+15  0.2318600454E+00  0.1924840963E-17 -0.1055826379E+00
  0.1429536967E+00  0.1000000000E+01  0.1429536967E+00  0.3354012806E-01  0.5950796843E-18 -0.1222977108E+00  0.6341799524E+15  0.3989767145E-01  0.5980287195E-18 -0.1178244876E+00
  0.4698893521E-01  0.1000000000E+01  0.1429536967E+00 -0.8176696752E-02  0.1236362529E-18 -0.1274425398E-01  0.6341799524E+15 -0.4190499975E-02  0.1220178935E-18 -0.1257922724E-01
  0.0000000000E+00  0.1000000000E+01  0.1429536967E+00 -0.2124447671E-01  0.4220865152E-21 -0.1615566243E-02  0.6341799524E+15 -0.2127177861E-01  0.3808484408E-21 -0.1614268430E-02
  0.4000000000E+00  0.1000000000E+01  0.2570463033E+00  0.6282272998E+00  0.2483893996E-17 -0.3938214387E+00  0.6341799524E+15  0.6371679415E+00  0.2483150426E-17 -0.3737971915E+00
  0.3530110648E+00  0.1000000000E+01  0.2570463033E+00  0.4607261365E+00  0.1053717949E-17 -0.4374069085E+00  0.6341799524E+15  0.4694758366E+00  0.1301799676E-17 -0.4204725979E+00
  0.2570463033E+00  0.1000000000E+01  0.2570463033E+00  0.2804734294E+00  0.1197842809E-17 -0.3112700777E+00  0.6341799524E+15  0.2918849725E+00  0.1196176380E-17 -0.3009395999E+00
  0.1429536967E+00  0.1000000000E+01  0.2570463033E+00  0.7146155163E-01  0.1021567200E-17 -0.2902753109E+00  0.6341799524E+15  0.8392458086E-01  0.1020637430E-17 -0.2872045395E+00
  0.4698893521E-01  0.1000000000E+01  0.2570463033E+00  0.2572323088E-02  0.8258083779E-18 -0.5434389610E-01  0.6341799524E+15  0.9190242332E-02  0.8200748543E-18 -0.5480603781E-01
  0.0000000000E+00  0.1000000000E+01  0.2570463033E+00 -0.1405599553E-01 -0.4717812194E-20 -0.1577956028E-02  0.6341799524E+15 -0.1404473357E-01 -0.4500765129E-20 -0.1632442307E-02
  0.4000000000E+00  0.1000000000E+01  0.3530110648E+00  0.6323274848E+00  0.2646901866E-17 -0.6371438367E+00  0.6341799524E+15  0.6479557107E+00  0.2638837859E-17 -0.6152469149E+00
  0.3530110648E+00  0.1000000000E+01  0.3530110648E+00  0.4586065601E+00  0.2281304513E-17 -0.6501961163E+00  0.6341799524E+15  0.4749631927E+00  0.2286193013E-17 -0.6325627653E+00
  0.2570463033E+00  0.1000000000E+01  0.3530110648E+00  0.2694724615E+00  0.1408367040E-17 -0.5043716759E+00  0.6341799524E+15  0.2881592424E+00  0.1267695345E-17 -0.4947901215E+00
  0.1429536967E+00  0.1000000000E+01  0.3530110648E+00  0.5921331858E-01  0.1533919718E-17 -0.4229104001E+00  0.6341799524E+15  0.7668642886E-01  0.1513188654E-17 -0.4203304297E+00
  0.4698893521E-01  0.1000000000E+01  0.3530110648E+00  0.7280946780E-03  0.4346029201E-18 -0.1147172416E+00  0.6341799524E+15  0.9206989314E-02  0.4431077736E-18 -0.1156505078E+00
  0.0000000000E+00  0.1000000000E+01  0.3530110648E+00 -0.1424905457E-01  0.4311173864E-20 -0.1925460301E-02  0.6341799524E+15 -0.1425543629E-01  0.4244457626E-20 -0.2071811982E-02
  0.4000000000E+00  0.1000000000E+01  0.4000000000E+00  0.5993265774E+00  0.4691825569E-17 -0.7557562872E+00  0.6341799524E+15  0.6204578089E+00  0.4684776365E-17 -0.7355137857E+00
  0.3530110648E+00  0.1000000000E+01  0.4000000000E+00  0.4747625528E+00  0.4109454204E-17 -0.7587329156E+00  0.6341799524E+15  0.4956564693E+00  0.4098960742E-17 -0.7443973947E+00
  0.2570463033E+00  0.1000000000E+01  0.4000000000E+00  0.2601103744E+00  0.1040346176E-17 -0.5941054217E+00  0.6341799524E+15  0.2818424293E+00  0.1044453110E-17 -0.5870758603E+00
  0.1429536967E+00  0.1000000000E+01  0.4000000000E+00  0.6155276836E-01  0.1537691672E-17 -0.4892714622E+00  0.6341799524E+15  0.8104525075E-01  0.1584930612E-17 -0.4860850442E+00
  0.4698893521E-01  0.1000000000E+01  0.4000000000E+00 -0.5251596708E-02  0.4138841482E-18 -0.1427039935E+00  0.6341799524E+15  0.4346352836E-02  0.4127364425E-18 -0.1421597599E+00
  0.0000000000E+00  0.1000000000E+01  0.4000000000E+00 -0.6652533003E-02  0.8288935523E-20 -0.2772861766E-02  0.6341799524E+15 -0.6711827461E-02  0.8478427324E-20 -0.2882303355E-02
ZONE I=6, J=6, K=1, F=POINT
  0.8000000000E+00  0.1000000000E+01  0.0000000000E+00  0.1907512956E-01 -0.8159599346E-19 -0.1213811662E-01  0.6341799524E+15  0.1765877506E-01 -0.8354893105E-19 -0.1151448259E-01
  0.7530110648E+00  0.1000000000E+01  0.0000000000E+00  0.3103171207E-02  0.1121749997E-18  0.5767759347E-02  0.6341799524E+15  0.2142218508E-02  0.9058039067E-19  0.5904756703E-02
  0.6570463033E+00  0.1000000000E+01  0.0000000000E+00  0.3015805504E-03  0.3400062315E-19  0.2740602414E-03  0.6341799524E+15 -0.3384473179E-03  0.2353361942E-19  0.2876914704E-03
  0.5429536967E+00  0.1000000000E+01  0.0000000000E+00  0.1494399757E-02  0.4784464547E-19  0.6894977588E-02  0.6341799524E+15  0.1132928365E-02  0.3573464742E-19  0.6940969995E-02
  0.4469889352E+00  0.1000000000E+01  0.0000000000E+00 -0.1265514279E-02 -0.1326384518E-19  0.4584756071E-03  0.6341799524E+15 -0.1367563705E-02 -0.1668548194E-19  0.5687454504E-03
  0.4000000000E+00  0.1000000000E+01  0.0000000000E+00  0.1548186661E-01  0.3172903101E-19  0.6744481527E-02  0.6341799524E+15  0.1522987797E-01  0.3198524366E-19  0.7109609758E-02
  0.8000000000E+00  0.1000000000E+01  0.4698893521E-01  0.3147887777E+00 -0.2483612704E-16 -0.8402670857E-02  0.6341799524E+15  0.3136084138E+00 -0.2481942281E-16  0.1270766517E-01
  0.7530110648E+00  0.1000000000E+01  0.4698893521E-01  0.5095123004E+00 -0.2430003220E-16 -0.6754615735E-01  0.6341799524E+15  0.5098165256E+00 -0.2433885707E-16 -0.4732016133E-01
  0.6570463033E+00  0.1000000000E+01  0.4698893521E-01  0.2943187267E+00 -0.5151496134E-17 -0.3511156291E-01  0.6341799524E+15  0.2950787427E+00 -0.5120258947E-17 -0.1900026170E-01
  0.5429536967E+00  0.1000000000E+01  0.4698893521E-01  0.3283111421E+00  0.4124880038E-17 -0.2288250231E-01  0.6341799524E+15  0.3291967428E+00  0.4148000835E-17 -0.1067932500E-01
  0.4469889352E+00  0.1000000000E+01  0.4698893521E-01  0.2016318049E+00  0.3753963186E-17 -0.1365166767E-01  0.6341799524E+15  0.2026997089E+00  0.3739462454E-17 -0.3677714819E-02
  0.4000000000E+00  0.1000000000E+01  0.4698893521E-01  0.3073195850E+00  0.2549215145E-17 -0.5636843476E-01  0.6341799524E+15  0.3076268074E+00  0.2547483942E-17 -0.4729516204E-01
  0.8000000000E+00  0.1000000000E+01  0.1429536967E+00  0.9705008406E+00 -0.5588332927E-16 -0.3758499207E+00  0.6341799524E+15  0.9688244449E+00 -0.5592137092E-16 -0.3419872275E+00
  0.7530110648E+00  0.1000000000E+01  0.1429536967E+00  0.1270950294E+01 -0.3590424369E-16 -0.2361005258E+00  0.6341799524E+15  0.1274711247E+01 -0.3615547490E-16 -0.2027286115E+00
  0.6570463033E+00  0.1000000000E+01  0.1429536967E+00  0.8462396291E+00 -0.5471668605E-17 -0.2367380025E+00  0.6341799524E+15  0.8526413797E+00 -0.5711737774E-17 -0.2075563104E+00
  0.5429536967E+00  0.1000000000E+01  0.1429536967E+00  0.7928676093E+00  0.8655242598E-17 -0.9243126873E-01  0.6341799524E+15  0.7977940620E+00  0.8809871690E-17 -0.7001329116E-01
  0.4469889352E+00  0.1000000000E+01  0.1429536967E+00  0.5019127902E+00  0.9122869282E-17 -0.1688076545E+00  0.6341799524E+15  0.5060527148E+00  0.9003618959E-17 -0.1505923737E+00
  0.4000000000E+00  0.1000000000E+01  0.1429536967E+00  0.6265348913E+00  0.9719475842E-17 -0.1430528034E+00  0.6341799524E+15  0.6295783052E+00  0.9768099756E-17 -0.1267960633E+00
  0.8000000000E+00  0.1000000000E+01  0.2570463033E+00  0.1854719303E+01 -0.1684917692E-16 -0.8788957627E+00  0.6341799524E+15  0.1849907154E+01 -0.1685967049E-16 -0.8532362153E+00
  0.7530110648E+00  0.1000000000E+01  0.2570463033E+00  0.1747079797E+01 -0.1339114698E-16 -0.6363384533E+00  0.6341799524E+15  0.1748974620E+01 -0.1297912276E-16 -0.6072376596E+00
  0.6570463033E+00  0.1000000000E+01  0.2570463033E+00  0.1314314833E+01 -0.6254577585E-17 -0.5906403145E+00  0.6341799524E+15  0.1324537227E+01 -0.6539203902E-17 -0.5580879773E+00
  0.5429536967E+00  0.1000000000E+01  0.2570463033E+00  0.1004576037E+01  0.9534114192E-18 -0.3424777463E+00  0.6341799524E+15  0.1016161799E+01  0.1138772183E-17 -0.3139641993E+00
  0.4469889352E+00  0.1000000000E+01  0.2570463033E+00  0.6959066013E+00  0.1719860044E-17 -0.4430180355E+00  0.6341799524E+15  0.7053935753E+00  0.2010885285E-17 -0.4203568858E+00
  0.4000000000E+00  0.1000000000E+01  0.2570463033E+00  0.6598250892E+00  0.2509300642E-17 -0.3931799225E+00  0.6341799524E+15  0.6686464134E+00  0.2510047418E-17 -0.3731912182E+00
  0.8000000000E+00  0.1000000000E+01  0.3530110648E+00  0.1970190632E+01 -0.3111029361E-17 -0.1293194840E+01  0.6341799524E+15  0.1956374512E+01 -0.3070233496E-17 -0.1272805423E+01
  0.7530110648E+00  0.1000000000E+01  0.3530110648E+00  0.1897156923E+01  0.3631884534E-17 -0.1085086938E+01  0.6341799524E+15  0.1889253216E+01  0.3166000999E-17 -0.1059028166E+01
  0.6570463033E+00  0.1000000000E+01  0.3530110648E+00  0.1437156011E+01 -0.3229495090E-17 -0.9246339966E+00  0.6341799524E+15  0.1445177079E+01 -0.3995530596E-17 -0.8894940064E+00
  0.5429536967E+00  0.1000000000E+01  0.3530110648E+00  0.1067457985E+01 -0.2212623034E-17 -0.6377113370E+00  0.6341799524E+15  0.1084910727E+01 -0.3563604066E-17 -0.6048770158E+00
  0.4469889352E+00  0.1000000000E+01  0.3530110648E+00  0.6872102879E+00  0.2511854827E-17 -0.6805330597E+00  0.6341799524E+15  0.7033483381E+00  0.2317828718E-17 -0.6545867153E+00
  0.4000000000E+00  0.1000000000E+01  0.3530110648E+00  0.6648882701E+00  0.2626327816E-17 -0.6369563685E+00  0.6341799524E+15  0.6808697583E+00  0.2614968039E-17 -0.6150391910E+00
  0.8000000000E+00  0.1000000000E+01  0.4000000000E+00  0.2020360326E+01 -0.9406466908E-17 -0.1537460732E+01  0.6341799524E+15  0.2003359298E+01 -0.9407478324E-17 -0.1515469561E+01
  0.7530110648E+00  0.1000000000E+01  0.4000000000E+00  0.1823733423E+01 -0.5148089916E-17 -0.1268014769E+01  0.6341799524E+15  0.1809741694E+01 -0.5198292589E-17 -0.1241556777E+01
  0.6570463033E+00  0.1000000000E+01  0.4000000000E+00  0.1419771030E+01 -0.2917839833E-17 -0.1099406363E+01  0.6341799524E+15  0.1425997549E+01 -0.2741393950E-17 -0.1063699313E+01
  0.5429536967E+00  0.1000000000E+01  0.4000000000E+00  0.1032822803E+01  0.3562655588E-17 -0.8205247967E+00  0.6341799524E+15  0.1053424340E+01  0.4488355273E-17 -0.7889307357E+00
  0.4469889352E+00  0.1000000000E+01  0.4000000000E+00  0.7242459649E+00  0.4689808583E-17 -0.8182798137E+00  0.6341799524E+15  0.7439182463E+00  0.4949418291E-17 -0.7934993321E+00
  0.4000000000E+00  0.1000000000E+01  0.4000000000E+00  0.6109219101E+00  0.4713700963E-17 -0.7550191799E+00  0.6341799524E+15  0.6327143583E+00  0.4708560566E-17 -0.7348060692E+00
ZONE I=6, J=6, K=1, F=POINT
  0.1200000000E+01  0.1000000000E+01  0.0000000000E+00 -0.3029706674E-01  0.5823455896E-19  0.3635830097E-01  0.6341799524E+15 -0.3214243114E-01  0.5999780295E-19  0.3643867041E-01
  0.1153011065E+01  0.1000000000E+01  0.0000000000E+00 -0.3256734890E-02 -0.1243728912E-18 -0.9784335133E-02  0.6341799524E+15 -0.5000093609E-02 -0.2075381678E-18 -0.9796558163E-02
  0.1057046303E+01  0.1000000000E+01  0.0000000000E+00  0.4169695261E-02  0.7306475758E-19  0.5936225911E-02  0.6341799524E+15  0.2415709846E-02  0.2671361470E-19  0.5894757867E-02
  0.9429536967E+00  0.1000000000E+01  0.0000000000E+00 -0.2748982562E-03  0.1128295799E-19 -0.8205080435E-02  0.6341799524E+15 -0.2151520297E-02  0.9871383641E-20 -0.8235293620E-02
  0.8469889352E+00  0.1000000000E+01  0.0000000000E+00  0.4960539076E-02 -0.1760144074E-19  0.5263631768E-02  0.6341799524E+15  0.3497074689E-02 -0.1914985047E-19  0.5343940685E-02
  0.8000000000E+00  0.1000000000E+01  0.0000000000E+00 -0.2623106195E-01 -0.9100957029E-19 -0.1162159795E-01  0.6341799524E+15 -0.2728385073E-01 -0.9319427960E-19 -0.1098703634E-01
  0.1200000000E+01  0.1000000000E+01  0.4698893521E-01  0.2109383367E+01 -0.4229396404E-16 -0.1924882337E+00  0.6341799524E+15  0.2107970661E+01 -0.4220293382E-16 -0.1863171482E+00
  0.1153011065E+01  0.1000000000E+01  0.4698893521E-01  0.1434609746E+01 -0.2694863678E-16 -0.4915609643E-01  0.6341799524E+15  0.1432651342E+01 -0.2688988810E-16 -0.4207601911E-01
  0.1057046303E+01  0.1000000000E+01  0.4698893521E-01  0.1314974022E+01 -0.1306650237E-16 -0.9191620897E-01  0.6341799524E+15  0.1312799681E+01 -0.1307865404E-16 -0.8179640296E-01
  0.9429536967E+00  0.1000000000E+01  0.4698893521E-01  0.7299526077E+00 -0.1616258770E-16 -0.8733368291E-01  0.6341799524E+15  0.7270061879E+00 -0.1606689117E-16 -0.7279424159E-01
  0.8469889352E+00  0.1000000000E+01  0.4698893521E-01  0.6398554452E+00 -0.2924392123E-16 -0.9236513313E-01  0.6341799524E+15  0.6372564038E+00 -0.2914367080E-16 -0.7256585924E-01
  0.8000000000E+00  0.1000000000E+01  0.4698893521E-01  0.2542513396E+00 -0.2414341200E-16 -0.6342121437E-02  0.6341799524E+15  0.2533049920E+00 -0.2413531016E-16  0.1471835024E-01
  0.1200000000E+01  0.1000000000E+01  0.1429536967E+00  0.4785661122E+01 -0.5958291914E-16 -0.5849140660E+00  0.6341799524E+15  0.4784509189E+01 -0.5943439616E-16 -0.5739526402E+00
  0.1153011065E+01  0.1000000000E+01  0.1429536967E+00  0.3363120590E+01 -0.6870195272E-16 -0.7927168502E+00  0.6341799524E+15  0.3357777092E+01 -0.6914971408E-16 -0.7792236204E+00
  0.1057046303E+01  0.1000000000E+01  0.1429536967E+00  0.3029208300E+01 -0.4185581160E-16 -0.5875031583E+00  0.6341799524E+15  0.3022218309E+01 -0.4183132477E-16 -0.5685692740E+00
  0.9429536967E+00  0.1000000000E+01  0.1429536967E+00  0.1833234963E+01 -0.3737553001E-16 -0.7135122721E+00  0.6341799524E+15  0.1824093659E+01 -0.3735232106E-16 -0.6864685218E+00
  0.8469889352E+00  0.1000000000E+01  0.1429536967E+00  0.1589560015E+01 -0.5312005622E-16 -0.3888001875E+00  0.6341799524E+15  0.1582301760E+01 -0.5311068443E-16 -0.3561553730E+00
  0.8000000000E+00  0.1000000000E+01  0.1429536967E+00  0.8871986138E+00 -0.5808494887E-16 -0.3774181363E+00  0.6341799524E+15  0.8872922964E+00 -0.5813207831E-16 -0.3435579857E+00
  0.1200000000E+01  0.1000000000E+01  0.2570463033E+00  0.4744756110E+01 -0.1115326718E-16 -0.1634032113E+01  0.6341799524E+15  0.4733102662E+01 -0.1110666174E-16 -0.1627087713E+01
  0.1153011065E+01  0.1000000000E+01  0.2570463033E+00  0.4253865322E+01 -0.4840777947E-16 -0.1873737220E+01  0.6341799524E+15  0.4241987612E+01 -0.4689936808E-16 -0.1864513574E+01
  0.1057046303E+01  0.1000000000E+01  0.2570463033E+00  0.3512054188E+01 -0.3877291838E-16 -0.1475629014E+01  0.6341799524E+15  0.3498450232E+01 -0.3880997496E-16 -0.1461030057E+01
  0.9429536967E+00  0.1000000000E+01  0.2570463033E+00  0.2654091388E+01 -0.3829925220E-16 -0.1542532085E+01  0.6341799524E+15  0.2638575253E+01 -0.3744336071E-16 -0.1522594652E+01
  0.8469889352E+00  0.1000000000E+01  0.2570463033E+00  0.2185935008E+01 -0.1858953721E-16 -0.9436039633E+00  0.6341799524E+15  0.2175048538E+01 -0.1866478491E-16 -0.9204366655E+00
  0.8000000000E+00  0.1000000000E+01  0.2570463033E+00  0.1816795562E+01 -0.1702807967E-16 -0.8813304543E+00  0.6341799524E+15  0.1812683825E+01 -0.1702352308E-16 -0.8553437185E+00
  0.1200000000E+01  0.1000000000E+01  0.3530110648E+00  0.4783776307E+01  0.2417230303E-16 -0.2700538192E+01  0.6341799524E+15  0.4767371984E+01  0.2420483299E-16 -0.2698223361E+01
  0.1153011065E+01  0.1000000000E+01  0.3530110648E+00  0.4111728988E+01  0.3268249257E-17 -0.2608893290E+01  0.6341799524E+15  0.4094246334E+01  0.3523808325E-17 -0.2603782134E+01
  0.1057046303E+01  0.1000000000E+01  0.3530110648E+00  0.3504371224E+01 -0.1656803007E-16 -0.2220820896E+01  0.6341799524E+15  0.3486729163E+01 -0.1669590203E-16 -0.2210224703E+01
  0.9429536967E+00  0.1000000000E+01  0.3530110648E+00  0.2705876502E+01 -0.2339207724E-16 -0.2033250871E+01  0.6341799524E+15  0.2688188220E+01 -0.2289033186E-16 -0.2020306326E+01
  0.8469889352E+00  0.1000000000E+01  0.3530110648E+00  0.2349389175E+01 -0.5624215908E-17 -0.1465408367E+01  0.6341799524E+15  0.2333357005E+01 -0.6250469066E-17 -0.1449111849E+01
  0.8000000000E+00  0.1000000000E+01  0.3530110648E+00  0.1923450589E+01 -0.3064376002E-17 -0.1293421411E+01  0.6341799524E+15  0.1910712409E+01 -0.3012402419E-17 -0.1273084395E+01
  0.1200000000E+01  0.1000000000E+01  0.4000000000E+00  0.4397391287E+01  0.2851902791E-16 -0.2972693584E+01  0.6341799524E+15  0.4377919684E+01  0.2854146461E-16 -0.2966851101E+01
  0.1153011065E+01  0.1000000000E+01  0.4000000000E+00  0.4090727617E+01  0.1968530926E-16 -0.3063322206E+01  0.6341799524E+15  0.4069656291E+01  0.1943281423E-16 -0.3055258698E+01
  0.1057046303E+01  0.1000000000E+01  0.4000000000E+00  0.3354302464E+01 -0.5683672776E-17 -0.2544070383E+01  0.6341799524E+15  0.3334865030E+01 -0.5686074357E-17 -0.2530610381E+01
  0.9429536967E+00  0.1000000000E+01  0.4000000000E+00  0.2695230403E+01 -0.2247106900E-16 -0.2326965049E+01  0.6341799524E+15  0.2676727514E+01 -0.2176548174E-16 -0.2310070390E+01
  0.8469889352E+00  0.1000000000E+01  0.4000000000E+00  0.2242643225E+01 -0.1445921861E-16 -0.1675036357E+01  0.6341799524E+15  0.2224010220E+01 -0.1476594036E-16 -0.1656206463E+01
  0.8000000000E+00  0.1000000000E+01  0.4000000000E+00  0.2016539271E+01 -0.9392830714E-17 -0.1540672058E+01  0.6341799524E+15  0.1998886048E+01 -0.9389560602E-17 -0.1518378605E+01
ZONE I=6, J=6, K=1, F=POINT
  0.1600000000E+01  0.1000000000E+01  0.0000000000E+00  0.1308773242E+00 -0.8958069264E-18 -0.7188047715E-01  0.6341799524E+15  0.1289866772E+00 -0.1017871666E-17 -0.7204758603E-01
  0.1553011065E+01  0.1000000000E+01  0.0000000000E+00  0.1113705026E-01 -0.1349217515E-17  0.4546220931E-01  0.6341799524E+15  0.9136440514E-02 -0.1284266533E-17  0.4522896951E-01
  0.1457046303E+01  0.1000000000E+01  0.0000000000E+00 -0.6298239869E-02 -0.1064842491E-18 -0.3331154444E-02  0.6341799524E+15 -0.8553899948E-02 -0.7299213758E-19 -0.3315619405E-02
  0.1342953697E+01  0.1000000000E+01  0.0000000000E+00  0.6387148184E-02  0.4632757327E-18  0.2989082321E-01  0.6341799524E+15  0.4076392823E-02  0.3368536824E-18  0.2971663200E-01
  0.1246988935E+01  0.1000000000E+01  0.0000000000E+00 -0.6174482201E-02  0.1271908928E-18 -0.8375562720E-02  0.6341799524E+15 -0.8565384000E-02  0.1192559412E-18 -0.8312163542E-02
  0.1200000000E+01  0.1000000000E+01  0.0000000000E+00  0.5948894329E-01  0.6298852484E-19  0.3639993239E-01  0.6341799524E+15  0.5748777513E-01  0.6444369641E-19  0.3648837915E-01
  0.1600000000E+01  0.1000000000E+01  0.4698893521E-01  0.2977008805E+01 -0.8949898871E-16  0.2059927035E+00  0.6341799524E+15  0.2973148346E+01 -0.8940846185E-16  0.2156606640E+00
  0.1553011065E+01  0.1000000000E+01  0.4698893521E-01  0.3429702206E+01 -0.4486489420E-16 -0.2939676789E+00  0.6341799524E+15  0.3427565546E+01 -0.4493781526E-16 -0.2861045547E+00
  0.1457046303E+01  0.1000000000E+01  0.4698893521E-01  0.2419853444E+01 -0.5285513293E-17 -0.9449460417E-01  0.6341799524E+15  0.2417700651E+01 -0.5204128304E-17 -0.8979978290E-01
  0.1342953697E+01  0.1000000000E+01  0.4698893521E-01  0.2395577220E+01  0.2900834628E-16 -0.5826424064E-01  0.6341799524E+15  0.2391922585E+01  0.2897715674E-16 -0.5402345924E-01
  0.1246988935E+01  0.1000000000E+01  0.4698893521E-01  0.1834692736E+01 -0.6369871844E-17 -0.1781978684E-01  0.6341799524E+15  0.1831255830E+01 -0.6518162172E-17 -0.1255929877E-01
  0.1200000000E+01  0.1000000000E+01  0.4698893521E-01  0.2207700051E+01 -0.4651815991E-16 -0.1981500371E+00  0.6341799524E+15  0.2204146978E+01 -0.4638880885E-16 -0.1916171426E+00
  0.1600000000E+01  0.1000000000E+01  0.1429536967E+00  0.6126551312E+01 -0.2678486005E-15 -0.1929562607E+01  0.6341799524E+15  0.6109423469E+01 -0.2679154232E-15 -0.1922496330E+01
  0.1553011065E+01  0.1000000000E+01  0.1429536967E+00  0.7751945111E+01 -0.1464821212E-15 -0.1072323100E+01  0.6341799524E+15  0.7753545073E+01 -0.1467260980E-15 -0.1066101483E+01
  0.1457046303E+01  0.1000000000E+01  0.1429536967E+00  0.5605934245E+01  0.3154464193E-16 -0.9951155581E+00  0.6341799524E+15  0.5606301547E+01  0.3137148793E-16 -0.9911125518E+00
  0.1342953697E+01  0.1000000000E+01  0.1429536967E+00  0.5533216227E+01  0.1016784123E-15 -0.2093273107E+00  0.6341799524E+15  0.5527756890E+01  0.1014935299E-15 -0.2038296225E+00
  0.1246988935E+01  0.1000000000E+01  0.1429536967E+00  0.4204874856E+01  0.2584905280E-16 -0.7130501982E+00  0.6341799524E+15  0.4199721668E+01  0.2635540339E-16 -0.7036728529E+00
  0.1200000000E+01  0.1000000000E+01  0.1429536967E+00  0.4949741686E+01 -0.6370581305E-16 -0.5796988395E+00  0.6341799524E+15  0.4939073416E+01 -0.6345813342E-16 -0.5693399447E+00
  0.1600000000E+01  0.1000000000E+01  0.2570463033E+00  0.1069193740E+02  0.8894083686E-16 -0.3978671176E+01  0.6341799524E+15  0.1069498062E+02  0.8887648491E-16 -0.3992069940E+01
  0.1553011065E+01  0.1000000000E+01  0.2570463033E+00  0.9531283184E+01  0.1136280879E-15 -0.2834596237E+01  0.6341799524E+15  0.9534255693E+01  0.1134275937E-15 -0.2841193269E+01
  0.1457046303E+01  0.1000000000E+01  0.2570463033E+00  0.8047722718E+01  0.1815968894E-15 -0.2564395736E+01  0.6341799524E+15  0.8047594648E+01  0.1814671589E-15 -0.2567231127E+01
  0.1342953697E+01  0.1000000000E+01  0.2570463033E+00  0.6382358788E+01  0.1324939788E-15 -0.1243597301E+01  0.6341799524E+15  0.6375156149E+01  0.1320552610E-15 -0.1245195175E+01
  0.1246988935E+01  0.1000000000E+01  0.2570463033E+00  0.5179524596E+01  0.4069291701E-16 -0.1877516395E+01  0.6341799524E+15  0.5168221597E+01  0.4015444572E-16 -0.1873913803E+01
  0.1200000000E+01  0.1000000000E+01  0.2570463033E+00  0.4785680657E+01 -0.1147317803E-16 -0.1625116027E+01  0.6341799524E+15  0.4773257913E+01 -0.1141579070E-16 -0.1620550198E+01
  0.1600000000E+01  0.1000000000E+01  0.3530110648E+00  0.8891284318E+01  0.1761081868E-15 -0.4706002787E+01  0.6341799524E+15  0.8884544426E+01  0.1760711856E-15 -0.4714296784E+01
  0.1553011065E+01  0.1000000000E+01  0.3530110648E+00  0.8980092414E+01  0.1865251752E-15 -0.4531074688E+01  0.6341799524E+15  0.8976232284E+01  0.1864812944E-15 -0.4539006841E+01
  0.1457046303E+01  0.1000000000E+01  0.3530110648E+00  0.7629199908E+01  0.1880078545E-15 -0.3868188605E+01  0.6341799524E+15  0.7627275556E+01  0.1878323310E-15 -0.3872011283E+01
  0.1342953697E+01  0.1000000000E+01  0.3530110648E+00  0.6301263950E+01  0.1448541055E-15 -0.2782360565E+01  0.6341799524E+15  0.6293151266E+01  0.1446203549E-15 -0.2784958476E+01
  0.1246988935E+01  0.1000000000E+01  0.3530110648E+00  0.4935871876E+01  0.5709430484E-16 -0.2792680172E+01  0.6341799524E+15  0.4918737378E+01  0.5773234930E-16 -0.2792460827E+01
  0.1200000000E+01  0.1000000000E+01  0.3530110648E+00  0.4860869853E+01  0.2426874719E-16 -0.2701142958E+01  0.6341799524E+15  0.4840761041E+01  0.2427015841E-16 -0.2698461982E+01
  0.1600000000E+01  0.1000000000E+01  0.4000000000E+00  0.8955276787E+01  0.1730349393E-15 -0.5550195329E+01  0.6341799524E+15  0.8951835777E+01  0.1729694008E-15 -0.5554295959E+01
  0.1553011065E+01  0.1000000000E+01  0.4000000000E+00  0.8186999717E+01  0.1947901918E-15 -0.4661422263E+01  0.6341799524E+15  0.8183785134E+01  0.1949496455E-15 -0.4664337518E+01
  0.1457046303E+01  0.1000000000E+01  0.4000000000E+00  0.7402508551E+01  0.1763836983E-15 -0.4466653677E+01  0.6341799524E+15  0.7398182903E+01  0.1764268605E-15 -0.4466693155E+01
  0.1342953697E+01  0.1000000000E+01  0.4000000000E+00  0.5926173492E+01  0.1505601091E-15 -0.3196307880E+01  0.6341799524E+15  0.5918512939E+01  0.1500912949E-15 -0.3193345831E+01
  0.1246988935E+01  0.1000000000E+01  0.4000000000E+00  0.4930975915E+01  0.5634457910E-16 -0.3338893336E+01  0.6341799524E+15  0.4911978388E+01  0.5666768248E-16 -0.3333486860E+01
  0.1200000000E+01  0.1000000000E+01  0.4000000000E+00  0.4370951995E+01  0.2878117617E-16 -0.2961364524E+01  0.6341799524E+15  0.4352859997E+01  0.2878424331E-16 -0.2957812287E+01
ZONE I=6, J=6, K=1, F=POINT
  0.2000000000E+01  0.1000000000E+01  0.0000000000E+00  0.2402495041E+01  0.7384202328E-19  0.2123412159E+02  0.6341799524E+15  0.2430279027E+01  0.9428328087E-19  0.2215516214E+02
  0.1953011065E+01  0.1000000000E+01  0.0000000000E+00  0.1291440392E+01 -0.3736879457E-16 -0.1371689626E+00  0.6341799524E+15  0.1294615401E+01 -0.3608691586E-16 -0.1504652375E+00
  0.1857046303E+01  0.1000000000E+01  0.0000000000E+00 -0.3067896128E+00 -0.1882434396E-16  0.1518220201E+00  0.6341799524E+15 -0.3086030159E+00 -0.1937622216E-16  0.1504069338E+00
  0.1742953697E+01  0.1000000000E+01  0.0000000000E+00  0.1343039785E+00  0.2323269671E-18 -0.3755540468E-01  0.6341799524E+15  0.1339464496E+00  0.1233157664E-18 -0.3728970502E-01
  0.1646988935E+01  0.1000000000E+01  0.0000000000E+00 -0.1272608577E+00  0.3418488296E-18  0.6075842966E-01  0.6341799524E+15 -0.1280862446E+00  0.3098357999E-18  0.5971050113E-01
  0.1600000000E+01  0.1000000000E+01  0.0000000000E+00  0.8925967021E-01 -0.9741199035E-18 -0.8405239729E-01  0.6341799524E+15  0.8738491381E-01 -0.1098380915E-17 -0.8282732801E-01
  0.2000000000E+01  0.1000000000E+01  0.4698893521E-01 -0.1158604495E-01  0.7447575950E-18  0.4848271676E+02  0.6341799524E+15 -0.5434620535E-01  0.6860343108E-18  0.4865678485E+02
  0.1953011065E+01  0.1000000000E+01  0.4698893521E-01  0.1096896360E+02  0.1384218999E-15  0.1474420144E+01  0.6341799524E+15  0.1095455135E+02  0.1371750220E-15  0.1490067397E+01
  0.1857046303E+01  0.1000000000E+01  0.4698893521E-01  0.1170004063E+02  0.2953641215E-15 -0.1875898040E+01  0.6341799524E+15  0.1169882077E+02  0.2954149674E-15 -0.1873396612E+01
  0.1742953697E+01  0.1000000000E+01  0.4698893521E-01  0.5821986907E+01 -0.3415000791E-16 -0.6588125687E+00  0.6341799524E+15  0.5822515387E+01 -0.3379655760E-16 -0.6567028321E+00
  0.1646988935E+01  0.1000000000E+01  0.4698893521E-01  0.4463232786E+01 -0.1215118894E-15 -0.6502253907E+00  0.6341799524E+15  0.4458690577E+01 -0.1214754858E-15 -0.6404744367E+00
  0.1600000000E+01  0.1000000000E+01  0.4698893521E-01  0.2814130295E+01 -0.8666835824E-16  0.1917593291E+00  0.6341799524E+15  0.2820022845E+01 -0.8640437758E-16  0.1961240254E+00
  0.2000000000E+01  0.1000000000E+01  0.1429536967E+00 -0.2814302077E+00  0.2713767201E-17  0.5050325582E+02  0.6341799524E+15 -0.2568569398E+00  0.2743970358E-17  0.5043892823E+02
  0.1953011065E+01  0.1000000000E+01  0.1429536967E+00  0.2804112166E+01 -0.5137680847E-15  0.1645216431E+02  0.6341799524E+15  0.2786411327E+01 -0.5140197861E-15  0.1648694461E+02
  0.1857046303E+01  0.1000000000E+01  0.1429536967E+00  0.1277513984E+02 -0.2551856065E-15 -0.3567562336E+01  0.6341799524E+15  0.1276836798E+02 -0.2550306387E-15 -0.3561957024E+01
  0.1742953697E+01  0.1000000000E+01  0.1429536967E+00  0.9979328873E+01 -0.9804947657E-17 -0.4165534221E+01  0.6341799524E+15  0.9974233300E+01 -0.1085777939E-16 -0.4167010665E+01
  0.1646988935E+01  0.1000000000E+01  0.1429536967E+00  0.9185609908E+01 -0.1580829127E-15 -0.2191962559E+01  0.6341799524E+15  0.9176650662E+01 -0.1578968965E-15 -0.2185595609E+01
  0.1600000000E+01  0.1000000000E+01  0.1429536967E+00  0.5757100399E+01 -0.2842824737E-15 -0.1929323427E+01  0.6341799524E+15  0.5778829199E+01 -0.2847791807E-15 -0.1927093128E+01
  0.2000000000E+01  0.1000000000E+01  0.2570463033E+00  0.1900554312E-01  0.1095087067E-17  0.4987289367E+02  0.6341799524E+15  0.1813745328E-01  0.1050084537E-17  0.4987687272E+02