TITLE = "Generated from ../MESH/Convergence_0000000000.hmesh and Convergence_0000008200.hsol"
VARIABLES = "x","y","z","veloT_x","veloT_y","veloT_z","slr_4","velo_x","velo_y","velo_z"
ZONE I=6, J=6, K=1, F=POINT
  0.4000000000E+00  0.1000000000E+01  0.0000000000E+00  0.2151123193E-01  0.4221112986E-19  0.6694271937E-02  0.2779271418E+15 -0.4467867986E-03  0.4138994400E-19  0.6769242513E-02
  0.3530110648E+00  0.1000000000E+01  0.0000000000E+00  0.3130865182E-01  0.2795035182E-20 -0.1133565225E-02  0.2779271418E+15  0.7887547821E-02  0.1436377811E-19 -0.9328112292E-03
  0.2570463033E+00  0.1000000000E+01  0.0000000000E+00  0.2465290745E-01 -0.1692470988E-20  0.1416766010E-02  0.2779271418E+15  0.5404100454E-02  0.3860533522E-20  0.1801267896E-02
  0.1429536967E+00  0.1000000000E+01  0.0000000000E+00  0.2057629302E-01 -0.1264686388E-20 -0.9641530279E-03  0.2779271418E+15  0.3219222442E-02  0.3863729060E-21 -0.7781028199E-03
  0.4698893521E-01  0.1000000000E+01  0.0000000000E+00  0.1812836183E-01 -0.1045942136E-20 -0.4392830676E-03  0.2779271418E+15  0.5660084798E-02 -0.3601682115E-21  0.5814625802E-03
  0.0000000000E+00  0.1000000000E+01  0.0000000000E+00 -0.5539685613E-02 -0.1456172023E-22  0.1211842752E-04  0.2779271418E+15 -0.6473937801E-02 -0.1212967758E-22  0.1076871660E-02
  0.4000000000E+00  0.1000000000E+01  0.4698893521E-01  0.3765612010E+00  0.2931639028E-17  0.4566991346E-01  0.2779271418E+15  0.3651066692E+00  0.3000614131E-17 -0.1336079735E+00
  0.3530110648E+00  0.1000000000E+01  0.4698893521E-01  0.2247108586E+00  0.2109009292E-17  0.5966114066E-01  0.2779271418E+15  0.2052873438E+00  0.2510967748E-17 -0.9886493368E-01
  0.2570463033E+00  0.1000000000E+01  0.4698893521E-01  0.1693079542E+00  0.1340937456E-17  0.1740540519E-01  0.2779271418E+15  0.1478303872E+00  0.1200926418E-17 -0.9656217372E-01
  0.1429536967E+00  0.1000000000E+01  0.4698893521E-01  0.6639709769E-01  0.6137739984E-18 -0.1743908884E-01  0.2779271418E+15  0.4270831215E-01  0.5098236450E-18 -0.7845595167E-01
  0.4698893521E-01  0.1000000000E+01  0.4698893521E-01  0.4224714453E-01  0.1664679124E-18 -0.4349458413E-01  0.2779271418E+15  0.2564177549E-01  0.1657183405E-18 -0.5278853844E-01
  0.0000000000E+00  0.1000000000E+01  0.4698893521E-01 -0.1610028275E-01  0.1753874438E-23 -0.1353173185E-01  0.2779271418E+15 -0.1690896424E-01  0.3436362955E-21 -0.1894850629E-02
  0.4000000000E+00  0.1000000000E+01  0.1429536967E+00  0.8020763137E+00  0.1284486650E-16 -0.1893230213E-01  0.2779271418E+15  0.7574101948E+00  0.1217018638E-16 -0.2417433702E+00
  0.3530110648E+00  0.1000000000E+01  0.1429536967E+00  0.5109862885E+00  0.6195141259E-17 -0.6630666933E-01  0.2779271418E+15  0.4391534952E+00  0.7622585707E-17 -0.2716565784E+00
  0.2570463033E+00  0.1000000000E+01  0.1429536967E+00  0.3699825192E+00  0.3314213815E-17 -0.3994399521E-01  0.2779271418E+15  0.2973252611E+00  0.3195653211E-17 -0.1958563468E+00
  0.1429536967E+00  0.1000000000E+01  0.1429536967E+00  0.1537623503E+00  0.1360443969E-17 -0.1065331276E+00  0.2779271418E+15  0.6299167640E-01  0.1309264266E-17 -0.1919280330E+00
  0.4698893521E-01  0.1000000000E+01  0.1429536967E+00  0.6075119564E-01  0.5338694844E-18 -0.4412951342E-01  0.2779271418E+15 -0.1483684799E-01  0.5917947536E-18 -0.5329793840E-01
  0.0000000000E+00  0.1000000000E+01  0.1429536967E+00 -0.2231727952E-01 -0.4356359092E-20 -0.1845288931E-01  0.2779271418E+15 -0.2217068632E-01 -0.2686730207E-20 -0.3992660826E-02
  0.4000000000E+00  0.1000000000E+01  0.2570463033E+00  0.1036307951E+01  0.5593647019E-17 -0.3580856332E+00  0.2779271418E+15  0.9843602589E+00  0.5541765787E-17 -0.5247624832E+00
  0.3530110648E+00  0.1000000000E+01  0.2570463033E+00  0.7981493026E+00  0.5641460251E-17 -0.4189472282E+00  0.2779271418E+15  0.6943415618E+00  0.3310462862E-17 -0.5812097207E+00
  0.2570463033E+00  0.1000000000E+01  0.2570463033E+00  0.5389054061E+00  0.3065362374E-17 -0.2932752142E+00  0.2779271418E+15  0.4147638273E+00  0.3098883607E-17 -0.4285840673E+00
  0.1429536967E+00  0.1000000000E+01  0.2570463033E+00  0.2825001382E+00  0.2074832811E-17 -0.2885886488E+00  0.2779271418E+15  0.1069541618E+00  0.2105130182E-17 -0.3549284173E+00
  0.4698893521E-01  0.1000000000E+01  0.2570463033E+00  0.1121448893E+00  0.9113668282E-18 -0.7784187372E-01  0.2779271418E+15 -0.3265739885E-01  0.9677687496E-18 -0.7393143845E-01
  0.0000000000E+00  0.1000000000E+01  0.2570463033E+00 -0.1471993053E-01  0.1139973095E-20 -0.1096844646E-01  0.2779271418E+15 -0.1480373771E-01 -0.2246187469E-20  0.1879514569E-02
  0.4000000000E+00  0.1000000000E+01  0.3530110648E+00  0.1285118920E+01  0.4951598042E-17 -0.7350752800E+00  0.2779271418E+15  0.1203387065E+01  0.5057679738E-17 -0.9878727356E+00
  0.3530110648E+00  0.1000000000E+01  0.3530110648E+00  0.9416001584E+00  0.4583736601E-17 -0.7571413415E+00  0.2779271418E+15  0.8095455386E+00  0.4526252192E-17 -0.9792864689E+00
  0.2570463033E+00  0.1000000000E+01  0.3530110648E+00  0.6129773043E+00  0.1865836849E-17 -0.5725151088E+00  0.2779271418E+15  0.4388641230E+00  0.4222018432E-17 -0.7366418540E+00
  0.1429536967E+00  0.1000000000E+01  0.3530110648E+00  0.3405264075E+00  0.2273584756E-17 -0.4644715315E+00  0.2779271418E+15  0.8327417124E-01  0.2842565670E-17 -0.5329885644E+00
  0.4698893521E-01  0.1000000000E+01  0.3530110648E+00  0.1347219348E+00  0.9359685181E-18 -0.1489089897E+00  0.2779271418E+15 -0.6467480747E-01  0.7993500162E-18 -0.1343537111E+00
  0.0000000000E+00  0.1000000000E+01  0.3530110648E+00 -0.1531881407E-01  0.7349114977E-20 -0.6640664617E-02  0.2779271418E+15 -0.1514997911E-01  0.3378191586E-20  0.7372834111E-02
  0.4000000000E+00  0.1000000000E+01  0.4000000000E+00  0.1336531154E+01  0.6623912351E-17 -0.9765308403E+00  0.2779271418E+15  0.1203803540E+01  0.6684728519E-17 -0.1315591967E+01
  0.3530110648E+00  0.1000000000E+01  0.4000000000E+00  0.1014609003E+01  0.5287320715E-17 -0.9221791042E+00  0.2779271418E+15  0.8417148172E+00  0.5979321983E-17 -0.1199611017E+01
  0.2570463033E+00  0.1000000000E+01  0.4000000000E+00  0.6454900195E+00  0.2770375303E-17 -0.6887827412E+00  0.2779271418E+15  0.4341282373E+00  0.1838072937E-17 -0.8694692610E+00
  0.1429536967E+00  0.1000000000E+01  0.4000000000E+00  0.3761954045E+00  0.2218323274E-17 -0.5389489942E+00  0.2779271418E+15  0.7229293614E-01  0.1592270549E-17 -0.6112253719E+00
  0.4698893521E-01  0.1000000000E+01  0.4000000000E+00  0.1401656043E+00  0.6377464183E-18 -0.1709665934E+00  0.2779271418E+15 -0.8976433922E-01  0.5645572340E-18 -0.1549009857E+00
  0.0000000000E+00  0.1000000000E+01  0.4000000000E+00 -0.7337198294E-02  0.5102724814E-20 -0.2496806361E-02  0.2779271418E+15 -0.7075930433E-02  0.7547517785E-20  0.9191047242E-02
ZONE I=6, J=6, K=1, F=POINT
  0.8000000000E+00  0.1000000000E+01  0.0000000000E+00  0.8881858622E-01 -0.6286135939E-19 -0.1248939435E-01  0.2779271418E+15  0.5100646235E-01 -0.4448970038E-19 -0.1230041734E-01
  0.7530110648E+00  0.1000000000E+01  0.0000000000E+00  0.6956437739E-01  0.1617648170E-17  0.4978024972E-02  0.2779271418E+15  0.3178720006E-01  0.8268356852E-18  0.5162465313E-02
  0.6570463033E+00  0.1000000000E+01  0.0000000000E+00  0.5849795770E-01  0.7905125908E-18 -0.1455761387E-02  0.2779271418E+15  0.2286450790E-01  0.3120185692E-18 -0.8123761741E-03
  0.5429536967E+00  0.1000000000E+01  0.0000000000E+00  0.4857882390E-01  0.1271578084E-17  0.4994135024E-02  0.2779271418E+15  0.1905749785E-01  0.4928196229E-18  0.5954975737E-02
  0.4469889352E+00  0.1000000000E+01  0.0000000000E+00  0.3655885498E-01  0.1140634829E-17 -0.9454284713E-03  0.2779271418E+15  0.1250761910E-01  0.4078110473E-18 -0.3654514323E-03
  0.4000000000E+00  0.1000000000E+01  0.0000000000E+00  0.4869167738E-01  0.4526134431E-19  0.6390041015E-02  0.2779271418E+15  0.2626954017E-01  0.4498166081E-19  0.6465501836E-02
  0.8000000000E+00  0.1000000000E+01  0.4698893521E-01  0.5881017499E+00 -0.2423136155E-16  0.1457645090E+00  0.2779271418E+15  0.6178671801E+00 -0.2466883373E-16 -0.6607382357E-01
  0.7530110648E+00  0.1000000000E+01  0.4698893521E-01  0.7619604114E+00 -0.2999465124E-16  0.9002176304E-01  0.2779271418E+15  0.7813088921E+00 -0.3076411437E-16 -0.1268451823E+00
  0.6570463033E+00  0.1000000000E+01  0.4698893521E-01  0.4991417728E+00 -0.1983472511E-17  0.1366490317E+00  0.2779271418E+15  0.5067190707E+00 -0.2241739540E-17 -0.7919369083E-01
  0.5429536967E+00  0.1000000000E+01  0.4698893521E-01  0.4879220306E+00  0.6885952449E-17  0.1480636381E+00  0.2779271418E+15  0.4901676979E+00  0.6793106594E-17 -0.6186786302E-01
  0.4469889352E+00  0.1000000000E+01  0.4698893521E-01  0.3306479957E+00  0.3728067533E-17  0.1168455498E+00  0.2779271418E+15  0.3260199488E+00  0.3926294213E-17 -0.7694769205E-01
  0.4000000000E+00  0.1000000000E+01  0.4698893521E-01  0.4187258789E+00  0.2681790889E-17  0.4490424623E-01  0.2779271418E+15  0.4072491008E+00  0.2747413184E-17 -0.1343688768E+00
  0.8000000000E+00  0.1000000000E+01  0.1429536967E+00  0.1553956209E+01 -0.4660714796E-16 -0.2083961669E+00  0.2779271418E+15  0.1611837251E+01 -0.4516467499E-16 -0.4257869981E+00
  0.7530110648E+00  0.1000000000E+01  0.1429536967E+00  0.1801891755E+01 -0.3319458008E-16 -0.6418586318E-01  0.2779271418E+15  0.1832782632E+01 -0.3189589575E-16 -0.2929795967E+00
  0.6570463033E+00  0.1000000000E+01  0.1429536967E+00  0.1270887425E+01 -0.6374344333E-17 -0.7443247673E-01  0.2779271418E+15  0.1275520835E+01 -0.6674569971E-17 -0.3064784226E+00
  0.5429536967E+00  0.1000000000E+01  0.1429536967E+00  0.1117180269E+01  0.1513663903E-16  0.4857429649E-01  0.2779271418E+15  0.1113970217E+01  0.1489100216E-16 -0.1770827261E+00
  0.4469889352E+00  0.1000000000E+01  0.1429536967E+00  0.7585549006E+00  0.9261949754E-17 -0.3820092059E-01  0.2779271418E+15  0.7369283751E+00  0.1054283737E-16 -0.2656095908E+00
  0.4000000000E+00  0.1000000000E+01  0.1429536967E+00  0.8534072938E+00  0.1357739886E-16 -0.1832425608E-01  0.2779271418E+15  0.8089081645E+00  0.1292253580E-16 -0.2411808340E+00
  0.8000000000E+00  0.1000000000E+01  0.2570463033E+00  0.2846192228E+01 -0.9135252020E-17 -0.8819398776E+00  0.2779271418E+15  0.2933132584E+01 -0.8822506874E-17 -0.1065862483E+01
  0.7530110648E+00  0.1000000000E+01  0.2570463033E+00  0.2651449709E+01 -0.3234484273E-17 -0.6279270188E+00  0.2779271418E+15  0.2696154876E+01 -0.6146896892E-17 -0.8168953715E+00
  0.6570463033E+00  0.1000000000E+01  0.2570463033E+00  0.2034233940E+01 -0.4605772535E-17 -0.5247716420E+00  0.2779271418E+15  0.2026436032E+01 -0.4325176735E-17 -0.7093243023E+00
  0.5429536967E+00  0.1000000000E+01  0.2570463033E+00  0.1561220454E+01  0.7532172142E-17 -0.2109786910E+00  0.2779271418E+15  0.1556627636E+01  0.7472291522E-17 -0.3829371132E+00
  0.4469889352E+00  0.1000000000E+01  0.2570463033E+00  0.1157314443E+01  0.7844982195E-17 -0.3655911217E+00  0.2779271418E+15  0.1147337297E+01  0.5685613042E-17 -0.5332055756E+00
  0.4000000000E+00  0.1000000000E+01  0.2570463033E+00  0.1068107786E+01  0.5641558922E-17 -0.3573541617E+00  0.2779271418E+15  0.1015435955E+01  0.5588870020E-17 -0.5241028311E+00
  0.8000000000E+00  0.1000000000E+01  0.3530110648E+00  0.3288847502E+01  0.2262617581E-17 -0.1517245532E+01  0.2779271418E+15  0.3404608185E+01  0.2333706787E-17 -0.1851309000E+01
  0.7530110648E+00  0.1000000000E+01  0.3530110648E+00  0.3091569989E+01  0.1490695350E-16 -0.1297424104E+01  0.2779271418E+15  0.3143832941E+01  0.1756023062E-16 -0.1647246405E+01
  0.6570463033E+00  0.1000000000E+01  0.3530110648E+00  0.2280770303E+01 -0.5216088865E-17 -0.1000595222E+01  0.2779271418E+15  0.2292537986E+01  0.1658209672E-18 -0.1401955754E+01
  0.5429536967E+00  0.1000000000E+01  0.3530110648E+00  0.1830322741E+01 -0.1559990337E-16 -0.5097465067E+00  0.2779271418E+15  0.1802016469E+01 -0.9901374977E-17 -0.9573184654E+00
  0.4469889352E+00  0.1000000000E+01  0.3530110648E+00  0.1502107536E+01  0.3859601653E-17 -0.6901988321E+00  0.2779271418E+15  0.1422729265E+01  0.6514964971E-17 -0.1011621990E+01
  0.4000000000E+00  0.1000000000E+01  0.3530110648E+00  0.1316927449E+01  0.4906525211E-17 -0.7345671412E+00  0.2779271418E+15  0.1235386582E+01  0.4986272404E-17 -0.9875003941E+00
  0.8000000000E+00  0.1000000000E+01  0.4000000000E+00  0.3468000835E+01 -0.6215729172E-17 -0.1945541014E+01  0.2779271418E+15  0.3628103523E+01 -0.6263220814E-17 -0.2335062232E+01
  0.7530110648E+00  0.1000000000E+01  0.4000000000E+00  0.3154490548E+01 -0.2450870652E-17 -0.1679993296E+01  0.2779271418E+15  0.3230460621E+01 -0.4420512266E-18 -0.2112903714E+01
  0.6570463033E+00  0.1000000000E+01  0.4000000000E+00  0.2279855903E+01  0.1221075900E-17 -0.1416182508E+01  0.2779271418E+15  0.2358017668E+01 -0.1206528640E-17 -0.1996884732E+01
  0.5429536967E+00  0.1000000000E+01  0.4000000000E+00  0.1882012597E+01  0.1451537337E-16 -0.9090613168E+00  0.2779271418E+15  0.1828986098E+01  0.6606626197E-17 -0.1631263125E+01
  0.4469889352E+00  0.1000000000E+01  0.4000000000E+00  0.1742841292E+01  0.1906520888E-16 -0.1009140112E+01  0.2779271418E+15  0.1535677852E+01  0.1703721489E-16 -0.1487800085E+01
  0.4000000000E+00  0.1000000000E+01  0.4000000000E+00  0.1346763574E+01  0.6599697528E-17 -0.9749992384E+00  0.2779271418E+15  0.1213647122E+01  0.6648930982E-17 -0.1314465884E+01
ZONE I=6, J=6, K=1, F=POINT
  0.1200000000E+01  0.1000000000E+01  0.0000000000E+00  0.5590611967E-01  0.7811838970E-19  0.3693683310E-01  0.2779271418E+15  0.2705794422E-01  0.9899618105E-19  0.3606155779E-01
  0.1153011065E+01  0.1000000000E+01  0.0000000000E+00  0.8308394509E-01  0.3816826457E-17 -0.9808458366E-02  0.2779271418E+15  0.5182415653E-01  0.2580941751E-17 -0.1035836938E-01
  0.1057046303E+01  0.1000000000E+01  0.0000000000E+00  0.8797371641E-01  0.2239807316E-17  0.5349778484E-02  0.2779271418E+15  0.5345537868E-01  0.1338560791E-17  0.5041828090E-02
  0.9429536967E+00  0.1000000000E+01  0.0000000000E+00  0.7837179869E-01  0.3858258849E-19 -0.8978853408E-02  0.2779271418E+15  0.4117046559E-01  0.8037581053E-19 -0.9084668983E-02
  0.8469889352E+00  0.1000000000E+01  0.0000000000E+00  0.7817231718E-01 -0.2291862000E-19  0.4489518341E-02  0.2779271418E+15  0.3963870504E-01 -0.1073728985E-19  0.4582372873E-02
  0.8000000000E+00  0.1000000000E+01  0.0000000000E+00  0.4368569434E-01 -0.6763761617E-19 -0.1198034786E-01  0.2779271418E+15  0.5291950985E-02 -0.4969634722E-19 -0.1179220956E-01
  0.1200000000E+01  0.1000000000E+01  0.4698893521E-01  0.2547881913E+01 -0.4949688069E-16 -0.7625649720E-01  0.2779271418E+15  0.2638940073E+01 -0.5335029122E-16 -0.1029772810E+00
  0.1153011065E+01  0.1000000000E+01  0.4698893521E-01  0.1852319494E+01 -0.3104002580E-16  0.6661812598E-01  0.2779271418E+15  0.1943027286E+01 -0.3373983160E-16  0.2037868994E-01
  0.1057046303E+01  0.1000000000E+01  0.4698893521E-01  0.1702276039E+01 -0.9402723907E-17  0.3521779470E-01  0.2779271418E+15  0.1778081994E+01 -0.8663931626E-17 -0.6145356740E-01
  0.9429536967E+00  0.1000000000E+01  0.4698893521E-01  0.1064689720E+01 -0.1785060822E-16  0.5188865923E-01  0.2779271418E+15  0.1122384277E+01 -0.1949900101E-16 -0.9803589614E-01
  0.8469889352E+00  0.1000000000E+01  0.4698893521E-01  0.9341566282E+00 -0.3337186385E-16  0.5826558583E-01  0.2779271418E+15  0.9764958292E+00 -0.3505639367E-16 -0.1375506412E+00
  0.8000000000E+00  0.1000000000E+01  0.4698893521E-01  0.5272526180E+00 -0.2355974064E-16  0.1477526179E+00  0.2779271418E+15  0.5564400426E+00 -0.2401990081E-16 -0.6408919284E-01
  0.1200000000E+01  0.1000000000E+01  0.1429536967E+00  0.5823281874E+01 -0.6490549552E-16 -0.4556480546E+00  0.2779271418E+15  0.5955284316E+01 -0.6817381369E-16 -0.4612582265E+00
  0.1153011065E+01  0.1000000000E+01  0.1429536967E+00  0.4353896590E+01 -0.6079636464E-16 -0.6742504024E+00  0.2779271418E+15  0.4500790943E+01 -0.5260242411E-16 -0.7015065930E+00
  0.1057046303E+01  0.1000000000E+01  0.1429536967E+00  0.3915932716E+01 -0.3673051513E-16 -0.4713490781E+00  0.2779271418E+15  0.4052122974E+01 -0.3706812110E-16 -0.5551337478E+00
  0.9429536967E+00  0.1000000000E+01  0.1429536967E+00  0.2583063064E+01 -0.3145893903E-16 -0.5757011056E+00  0.2779271418E+15  0.2696776960E+01 -0.3164435171E-16 -0.7287875801E+00
  0.8469889352E+00  0.1000000000E+01  0.1429536967E+00  0.2231994324E+01 -0.5157478814E-16 -0.2260464029E+00  0.2779271418E+15  0.2321217263E+01 -0.5257865242E-16 -0.4261762767E+00
  0.8000000000E+00  0.1000000000E+01  0.1429536967E+00  0.1470026780E+01 -0.4876661682E-16 -0.2102026792E+00  0.2779271418E+15  0.1529130386E+01 -0.4729989390E-16 -0.4274533725E+00
  0.1200000000E+01  0.1000000000E+01  0.2570463033E+00  0.6507156165E+01 -0.1418074487E-16 -0.1591198407E+01  0.2779271418E+15  0.6675419785E+01 -0.1424150232E-16 -0.1599594003E+01
  0.1153011065E+01  0.1000000000E+01  0.2570463033E+00  0.5957325640E+01 -0.5638869223E-16 -0.1870782662E+01  0.2779271418E+15  0.6154297228E+01 -0.7742574837E-16 -0.1898674331E+01
  0.1057046303E+01  0.1000000000E+01  0.2570463033E+00  0.5037262035E+01 -0.3162299880E-16 -0.1538053062E+01  0.2779271418E+15  0.5238353816E+01 -0.3135100388E-16 -0.1615050744E+01
  0.9429536967E+00  0.1000000000E+01  0.2570463033E+00  0.3936056485E+01 -0.3555284164E-16 -0.1617603095E+01  0.2779271418E+15  0.4104415738E+01 -0.4442540767E-16 -0.1753934701E+01
  0.8469889352E+00  0.1000000000E+01  0.2570463033E+00  0.3273055903E+01 -0.3505996318E-17 -0.9628440153E+00  0.2779271418E+15  0.3396474474E+01 -0.1826938326E-17 -0.1135567430E+01
  0.8000000000E+00  0.1000000000E+01  0.2570463033E+00  0.2807529994E+01 -0.9330407570E-17 -0.8847494696E+00  0.2779271418E+15  0.2895314734E+01 -0.9144236689E-17 -0.1068183068E+01
  0.1200000000E+01  0.1000000000E+01  0.3530110648E+00  0.7128404809E+01  0.1659039408E-16 -0.2745002604E+01  0.2779271418E+15  0.7332504255E+01  0.1644023675E-16 -0.2784786861E+01
  0.1153011065E+01  0.1000000000E+01  0.3530110648E+00  0.6377738292E+01 -0.1160516194E-17 -0.2736873811E+01  0.2779271418E+15  0.6627774601E+01 -0.4462717469E-17 -0.2801619470E+01
  0.1057046303E+01  0.1000000000E+01  0.3530110648E+00  0.5560159148E+01 -0.1794599015E-16 -0.2473613759E+01  0.2779271418E+15  0.5821015021E+01 -0.1638218715E-16 -0.2605108725E+01
  0.9429536967E+00  0.1000000000E+01  0.3530110648E+00  0.4412283264E+01 -0.2308901264E-16 -0.2339640044E+01  0.2779271418E+15  0.4638502771E+01 -0.2868909928E-16 -0.2556636276E+01
  0.8469889352E+00  0.1000000000E+01  0.3530110648E+00  0.3762022120E+01 -0.5054009634E-18 -0.1714957994E+01  0.2779271418E+15  0.3934132064E+01  0.6945296325E-17 -0.2014402443E+01
  0.8000000000E+00  0.1000000000E+01  0.3530110648E+00  0.3241184859E+01  0.2345045987E-17 -0.1517633700E+01  0.2779271418E+15  0.3358530935E+01  0.2337304687E-17 -0.1851685584E+01
  0.1200000000E+01  0.1000000000E+01  0.4000000000E+00  0.6999080174E+01  0.1654402793E-16 -0.3108728030E+01  0.2779271418E+15  0.7221270080E+01  0.1634818209E-16 -0.3129875665E+01
  0.1153011065E+01  0.1000000000E+01  0.4000000000E+00  0.6599620342E+01  0.1152287601E-16 -0.3304706004E+01  0.2779271418E+15  0.6877398157E+01  0.1727546118E-16 -0.3349398244E+01
  0.1057046303E+01  0.1000000000E+01  0.4000000000E+00  0.5632772192E+01 -0.7708060294E-17 -0.2933260600E+01  0.2779271418E+15  0.5928738886E+01 -0.4501022083E-17 -0.3037574087E+01
  0.9429536967E+00  0.1000000000E+01  0.4000000000E+00  0.4584297796E+01 -0.2234937195E-16 -0.2770250397E+01  0.2779271418E+15  0.4855207920E+01 -0.2864243457E-16 -0.2979870931E+01
  0.8469889352E+00  0.1000000000E+01  0.4000000000E+00  0.3795825545E+01 -0.1140445839E-16 -0.2104686903E+01  0.2779271418E+15  0.4018471814E+01 -0.8974087358E-17 -0.2431797047E+01
  0.8000000000E+00  0.1000000000E+01  0.4000000000E+00  0.3463576776E+01 -0.6195459866E-17 -0.1948802206E+01  0.2779271418E+15  0.3623585069E+01 -0.6283669913E-17 -0.2337884937E+01
ZONE I=6, J=6, K=1, F=POINT
  0.1600000000E+01  0.1000000000E+01  0.0000000000E+00  0.2198278472E+00 -0.9499156495E-18 -0.7370506517E-01  0.2779271418E+15  0.2135646556E+00 -0.9749985804E-18 -0.7570553692E-01
  0.1553011065E+01  0.1000000000E+01  0.0000000000E+00  0.9909250760E-01 -0.5568658952E-17  0.4500181581E-01  0.2779271418E+15  0.9127997533E-01 -0.5316498403E-17  0.4437810074E-01
  0.1457046303E+01  0.1000000000E+01  0.0000000000E+00  0.8067762393E-01 -0.2167670196E-17 -0.3173399436E-02  0.2779271418E+15  0.6678506225E-01 -0.1799389254E-17 -0.3917568834E-02
  0.1342953697E+01  0.1000000000E+01  0.0000000000E+00  0.9271076635E-01  0.5248292089E-17  0.2971723319E-01  0.2779271418E+15  0.7202312162E-01  0.4123408738E-17  0.2891857590E-01
  0.1246988935E+01  0.1000000000E+01  0.0000000000E+00  0.7966570244E-01  0.5424867355E-18 -0.8162308363E-02  0.2779271418E+15  0.5358417047E-01  0.2594101370E-18 -0.8875976430E-02
  0.1200000000E+01  0.1000000000E+01  0.0000000000E+00  0.1456288983E+00  0.1012399163E-18  0.3693197585E-01  0.2779271418E+15  0.1165942338E+00  0.1230778997E-18  0.3606345029E-01
  0.1600000000E+01  0.1000000000E+01  0.4698893521E-01  0.3088524876E+01 -0.9131682200E-16  0.4127606610E+00  0.2779271418E+15  0.3232059412E+01 -0.9457329406E-16  0.2961634031E+00
  0.1553011065E+01  0.1000000000E+01  0.4698893521E-01  0.3628454391E+01 -0.4228937561E-16 -0.8892657228E-01  0.2779271418E+15  0.3755064546E+01 -0.3841988404E-16 -0.1883303912E+00
  0.1457046303E+01  0.1000000000E+01  0.4698893521E-01  0.2749781361E+01 -0.9238418276E-17  0.9703389244E-01  0.2779271418E+15  0.2867536482E+01 -0.1282128349E-16  0.4866576659E-01
  0.1342953697E+01  0.1000000000E+01  0.4698893521E-01  0.2829150849E+01  0.2834999895E-16  0.9247245534E-01  0.2779271418E+15  0.2933791696E+01  0.2925787883E-16  0.5868274217E-01
  0.1246988935E+01  0.1000000000E+01  0.4698893521E-01  0.2271610889E+01 -0.2414878980E-17  0.1012451978E+00  0.2779271418E+15  0.2359027601E+01  0.1167530591E-17  0.7675922316E-01
  0.1200000000E+01  0.1000000000E+01  0.4698893521E-01  0.2647135559E+01 -0.5377918118E-16 -0.8190315644E-01  0.2779271418E+15  0.2735459473E+01 -0.5761907951E-16 -0.1083144758E+00
  0.1600000000E+01  0.1000000000E+01  0.1429536967E+00  0.6587354126E+01 -0.2685389658E-15 -0.1417576763E+01  0.2779271418E+15  0.6734669445E+01 -0.2598780004E-15 -0.1392152232E+01
  0.1553011065E+01  0.1000000000E+01  0.1429536967E+00  0.8361808406E+01 -0.1534436916E-15 -0.5762985301E+00  0.2779271418E+15  0.8458161817E+01 -0.1567420590E-15 -0.5602012897E+00
  0.1457046303E+01  0.1000000000E+01  0.1429536967E+00  0.6504784185E+01  0.3205868667E-16 -0.5934735769E+00  0.2779271418E+15  0.6602552744E+01  0.3793863335E-16 -0.5807259100E+00
  0.1342953697E+01  0.1000000000E+01  0.1429536967E+00  0.6614025713E+01  0.1002237895E-15  0.3647063245E-01  0.2779271418E+15  0.6717234956E+01  0.1039941275E-15  0.4808641080E-01
  0.1246988935E+01  0.1000000000E+01  0.1429536967E+00  0.5270872409E+01  0.1006459437E-16 -0.5730981890E+00  0.2779271418E+15  0.5360233120E+01  0.3607641554E-17 -0.5662012578E+00
  0.1200000000E+01  0.1000000000E+01  0.1429536967E+00  0.5991906830E+01 -0.6901726259E-16 -0.4496510535E+00  0.2779271418E+15  0.6111866510E+01 -0.7200177037E-16 -0.4563018077E+00
  0.1600000000E+01  0.1000000000E+01  0.2570463033E+00  0.1177002484E+02  0.9045047745E-16 -0.3075552827E+01  0.2779271418E+15  0.1198497019E+02  0.9102099207E-16 -0.2963246047E+01
  0.1553011065E+01  0.1000000000E+01  0.2570463033E+00  0.1081995147E+02  0.1147811448E-15 -0.1978791666E+01  0.2779271418E+15  0.1097268084E+02  0.1162994903E-15 -0.1885216064E+01
  0.1457046303E+01  0.1000000000E+01  0.2570463033E+00  0.9696282951E+01  0.1756134551E-15 -0.1908227326E+01  0.2779271418E+15  0.9819652717E+01  0.1825645909E-15 -0.1860914338E+01
  0.1342953697E+01  0.1000000000E+01  0.2570463033E+00  0.8223481417E+01  0.1267066121E-15 -0.9284017956E+00  0.2779271418E+15  0.8335760544E+01  0.1330468778E-15 -0.8997125059E+00
  0.1246988935E+01  0.1000000000E+01  0.2570463033E+00  0.6989259822E+01  0.4158804385E-16 -0.1788679670E+01  0.2779271418E+15  0.7109706133E+01  0.4758186742E-16 -0.1780386163E+01
  0.1200000000E+01  0.1000000000E+01  0.2570463033E+00  0.6547738533E+01 -0.1449969457E-16 -0.1581032749E+01  0.2779271418E+15  0.6715845978E+01 -0.1483608231E-16 -0.1592522926E+01
  0.1600000000E+01  0.1000000000E+01  0.3530110648E+00  0.1047883123E+02  0.1892185876E-15 -0.3322917798E+01  0.2779271418E+15  0.1071652070E+02  0.1885246336E-15 -0.3268105809E+01
  0.1553011065E+01  0.1000000000E+01  0.3530110648E+00  0.1079890939E+02  0.1891879325E-15 -0.3244337894E+01  0.2779271418E+15  0.1098517056E+02  0.1904266003E-15 -0.3201042419E+01
  0.1457046303E+01  0.1000000000E+01  0.3530110648E+00  0.9857018445E+01  0.1756660161E-15 -0.2923910689E+01  0.2779271418E+15  0.1000152407E+02  0.1838446301E-15 -0.2889603189E+01
  0.1342953697E+01  0.1000000000E+01  0.3530110648E+00  0.8745087397E+01  0.1270448740E-15 -0.2361838123E+01  0.2779271418E+15  0.8875716519E+01  0.1310441917E-15 -0.2351191275E+01
  0.1246988935E+01  0.1000000000E+01  0.3530110648E+00  0.7337743862E+01  0.3751468493E-16 -0.2735542975E+01  0.2779271418E+15  0.7491362823E+01  0.3321142191E-16 -0.2756754484E+01
  0.1200000000E+01  0.1000000000E+01  0.3530110648E+00  0.7207425323E+01  0.1675697797E-16 -0.2745096686E+01  0.2779271418E+15  0.7407452955E+01  0.1654080062E-16 -0.2784749262E+01
  0.1600000000E+01  0.1000000000E+01  0.4000000000E+00  0.1075283314E+02  0.1879930374E-15 -0.3876763599E+01  0.2779271418E+15  0.1101782358E+02  0.1876644258E-15 -0.3749413532E+01
  0.1553011065E+01  0.1000000000E+01  0.4000000000E+00  0.1023279847E+02  0.1958120494E-15 -0.3135787592E+01  0.2779271418E+15  0.1042807790E+02  0.1910866361E-15 -0.3024650068E+01
  0.1457046303E+01  0.1000000000E+01  0.4000000000E+00  0.9884159479E+01  0.1597564821E-15 -0.3401652921E+01  0.2779271418E+15  0.1003420284E+02  0.1588522541E-15 -0.3306328612E+01
  0.1342953697E+01  0.1000000000E+01  0.4000000000E+00  0.8635419622E+01  0.1364983732E-15 -0.2762457480E+01  0.2779271418E+15  0.8785672743E+01  0.1443731526E-15 -0.2708742375E+01
  0.1246988935E+01  0.1000000000E+01  0.4000000000E+00  0.7597647807E+01  0.3406482182E-16 -0.3333095121E+01  0.2779271418E+15  0.7770983060E+01  0.3348900954E-16 -0.3330638432E+01
  0.1200000000E+01  0.1000000000E+01  0.4000000000E+00  0.6973550629E+01  0.1688468380E-16 -0.3096078180E+01  0.2779271418E+15  0.7197776723E+01  0.1671104615E-16 -0.3120291630E+01
ZONE I=6, J=6, K=1, F=POINT
  0.2000000000E+01  0.1000000000E+01  0.0000000000E+00  0.2408553561E+01  0.9220914709E-19  0.2123814902E+02  0.2779271418E+15  0.2441668387E+01  0.1198605222E-18  0.2216648130E+02
  0.1953011065E+01  0.1000000000E+01  0.0000000000E+00  0.1370297364E+01 -0.3914415619E-16 -0.1318042832E+00  0.2779271418E+15  0.1392659818E+01 -0.3812529802E-16 -0.1375427362E+00
  0.1857046303E+01  0.1000000000E+01  0.0000000000E+00 -0.2083404066E+00 -0.1316937922E-16  0.1519518467E+00  0.2779271418E+15 -0.1950816428E+00 -0.1303051942E-16  0.1471363117E+00
  0.1742953697E+01  0.1000000000E+01  0.0000000000E+00  0.2268906288E+00  0.4779658974E-18 -0.3601067301E-01  0.2779271418E+15  0.2305570281E+00  0.4316165771E-18 -0.3575422580E-01
  0.1646988935E+01  0.1000000000E+01  0.0000000000E+00 -0.2297284863E-01 -0.2429992268E-19  0.5981099203E-01  0.2779271418E+15 -0.2539079400E-01  0.3834939449E-19  0.5785690087E-01
  0.1600000000E+01  0.1000000000E+01  0.0000000000E+00  0.1759225566E+00 -0.1040958763E-17 -0.8578327389E-01  0.2779271418E+15  0.1686352656E+00 -0.1072774173E-17 -0.8640878312E-01
  0.2000000000E+01  0.1000000000E+01  0.4698893521E-01 -0.7094053753E-02  0.7417126652E-18  0.4856344899E+02  0.2779271418E+15 -0.4240288421E-01  0.7416435975E-18  0.4875553258E+02
  0.1953011065E+01  0.1000000000E+01  0.4698893521E-01  0.1098969331E+02  0.1347195482E-15  0.1501355640E+01  0.2779271418E+15  0.1119933967E+02  0.1356611302E-15  0.1723565849E+01
  0.1857046303E+01  0.1000000000E+01  0.4698893521E-01  0.1162760652E+02  0.2873732313E-15 -0.1835152945E+01  0.2779271418E+15  0.1188271924E+02  0.3054587364E-15 -0.1689978034E+01
  0.1742953697E+01  0.1000000000E+01  0.4698893521E-01  0.5731831247E+01 -0.4627689699E-16 -0.4937356885E+00  0.2779271418E+15  0.5951614401E+01 -0.4668388058E-16 -0.4688631623E+00
  0.1646988935E+01  0.1000000000E+01  0.4698893521E-01  0.4527599382E+01 -0.1292369678E-15 -0.4437115617E+00  0.2779271418E+15  0.4748464103E+01 -0.1409269860E-15 -0.5315781078E+00
  0.1600000000E+01  0.1000000000E+01  0.4698893521E-01  0.2922544884E+01 -0.8841364011E-16  0.3983031985E+00  0.2779271418E+15  0.3074490729E+01 -0.9139677826E-16  0.2767206134E+00
  0.2000000000E+01  0.1000000000E+01  0.1429536967E+00 -0.2818709777E+00  0.2809402326E-17  0.5060955854E+02  0.2779271418E+15 -0.2611247657E+00  0.2456364356E-17  0.5055604777E+02
  0.1953011065E+01  0.1000000000E+01  0.1429536967E+00  0.2813365957E+01 -0.5073082208E-15  0.1640472927E+02  0.2779271418E+15  0.3035798700E+01 -0.4858049555E-15  0.1667448175E+02
  0.1857046303E+01  0.1000000000E+01  0.1429536967E+00  0.1260622737E+02 -0.2679968876E-15 -0.3605118656E+01  0.2779271418E+15  0.1293830518E+02 -0.2879834962E-15 -0.3395791815E+01
  0.1742953697E+01  0.1000000000E+01  0.1429536967E+00  0.9905657865E+01 -0.4441198016E-16 -0.3844681074E+01  0.2779271418E+15  0.1023916787E+02 -0.1239538256E-16 -0.3737191800E+01
  0.1646988935E+01  0.1000000000E+01  0.1429536967E+00  0.9486613727E+01 -0.1700948097E-15 -0.1704638611E+01  0.2779271418E+15  0.9790205501E+01 -0.1683395336E-15 -0.1658713397E+01
  0.1600000000E+01  0.1000000000E+01  0.1429536967E+00  0.6213713339E+01 -0.2853455024E-15 -0.1418608088E+01  0.2779271418E+15  0.6400951798E+01 -0.2767869632E-15 -0.1396937642E+01
  0.2000000000E+01  0.1000000000E+01  0.2570463033E+00  0.2070725093E-01  0.1165681267E-17  0.4998001818E+02  0.2779271418E+15  0.1898323826E-01  0.1181091055E-17  0.4997951954E+02