TITLE = "Generated from ../MESH/Convergence_0000000000.hmesh and Convergence_0000009400.hsol"
VARIABLES = "x","y","z","veloT_x","veloT_y","veloT_z","slr_4","velo_x","velo_y","velo_z"
ZONE I=6, J=6, K=1, F=POINT
  0.4000000000E+00  0.1000000000E+01  0.0000000000E+00  0.1670892985E+00  0.4981562375E-19  0.1337552016E-01  0.7238480395E+15  0.1972150925E+00  0.1332054161E-18  0.1249692552E-01
  0.3530110648E+00  0.1000000000E+01  0.0000000000E+00  0.1922153969E+00 -0.5410416855E-19  0.4022459817E-03  0.7238480395E+15  0.2102710281E+00 -0.6533701871E-20 -0.1035994386E-02
  0.2570463033E+00  0.1000000000E+01  0.0000000000E+00  0.1601493285E+00 -0.2876622305E-19 -0.7971855083E-04  0.7238480395E+15  0.1664013335E+00 -0.7064086309E-20 -0.1800439016E-02
  0.1429536967E+00  0.1000000000E+01  0.0000000000E+00  0.1486974991E+00 -0.8356207800E-20 -0.1935376151E-02  0.7238480395E+15  0.1571631045E+00 -0.7069211929E-20  0.1124190869E-02
  0.4698893521E-01  0.1000000000E+01  0.0000000000E+00  0.1129603303E+00 -0.3849918000E-20 -0.7534211412E-02  0.7238480395E+15  0.1279402265E+00  0.1422359980E-19 -0.1659135801E-01
  0.0000000000E+00  0.1000000000E+01  0.0000000000E+00  0.1423584092E-02 -0.1188420508E-22 -0.7932720816E-02  0.7238480395E+15  0.8439680042E-02 -0.2144474484E-21 -0.1413633407E-01
  0.4000000000E+00  0.1000000000E+01  0.4698893521E-01  0.4910460008E+00  0.2118051333E-17  0.8901465671E+00  0.7238480395E+15  0.9728288586E+00 -0.6147633519E-18  0.3664692449E+00
  0.3530110648E+00  0.1000000000E+01  0.4698893521E-01  0.3774749475E+00 -0.4902617640E-18  0.8037560920E+00  0.7238480395E+15  0.7938072024E+00 -0.4213741976E-17  0.2559276511E+00
  0.2570463033E+00  0.1000000000E+01  0.4698893521E-01  0.3132515615E+00  0.1955240400E-17  0.5541817764E+00  0.7238480395E+15  0.6139099996E+00  0.8441444526E-18  0.6808857946E-01
  0.1429536967E+00  0.1000000000E+01  0.4698893521E-01  0.2098868779E+00  0.1198547902E-17  0.2773313506E+00  0.7238480395E+15  0.4998057380E+00  0.1710212019E-17 -0.1658093850E+00
  0.4698893521E-01  0.1000000000E+01  0.4698893521E-01  0.1429397067E+00  0.1932216214E-18 -0.8639677540E-02  0.7238480395E+15  0.3621415332E+00  0.5910927973E-18 -0.3260295249E+00
  0.0000000000E+00  0.1000000000E+01  0.4698893521E-01 -0.9756029102E-02 -0.1779712326E-20 -0.1043898820E+00  0.7238480395E+15 -0.6324108483E-03 -0.5414398188E-20 -0.1218242820E+00
  0.4000000000E+00  0.1000000000E+01  0.1429536967E+00  0.1054538201E+01  0.1619886150E-16  0.1059360634E+01  0.7238480395E+15  0.1624395674E+01  0.2366673801E-16  0.4976875506E+00
  0.3530110648E+00  0.1000000000E+01  0.1429536967E+00  0.9117235727E+00 -0.1085032148E-17  0.9163670112E+00  0.7238480395E+15  0.1253873053E+01  0.2303271000E-17  0.3756126046E+00
  0.2570463033E+00  0.1000000000E+01  0.1429536967E+00  0.7367347676E+00  0.3823544306E-17  0.6923322178E+00  0.7238480395E+15  0.1020828616E+01  0.3575241192E-17  0.1874926040E+00
  0.1429536967E+00  0.1000000000E+01  0.1429536967E+00  0.6166288608E+00  0.1558637102E-17  0.3034894290E+00  0.7238480395E+15  0.8266884100E+00  0.1271827123E-17 -0.1936488592E+00
  0.4698893521E-01  0.1000000000E+01  0.1429536967E+00  0.4757129314E+00  0.3591238446E-18 -0.2405794638E-01  0.7238480395E+15  0.4821600034E+00  0.1911727905E-17 -0.3472809033E+00
  0.0000000000E+00  0.1000000000E+01  0.1429536967E+00 -0.2368627083E-01 -0.1134950200E-19 -0.1331672082E+00  0.7238480394E+15 -0.2904815639E-01 -0.2952527726E-19 -0.1354944236E+00
  0.4000000000E+00  0.1000000000E+01  0.2570463033E+00  0.1350483929E+01  0.5392944758E-17  0.3583691218E+00  0.7238480395E+15  0.2183636745E+01  0.6041179392E-17  0.7128471995E-01
  0.3530110648E+00  0.1000000000E+01  0.2570463033E+00  0.1409594567E+01  0.1630186034E-16  0.3269794254E+00  0.7238480395E+15  0.1811231319E+01  0.9727682572E-17 -0.1329841823E+00
  0.2570463033E+00  0.1000000000E+01  0.2570463033E+00  0.1189732117E+01  0.2654919000E-17  0.3383224155E+00  0.7238480395E+15  0.1476411753E+01  0.2811534631E-17 -0.1634594757E+00
  0.1429536967E+00  0.1000000000E+01  0.2570463033E+00  0.1177469188E+01  0.1791322826E-17  0.1573571447E-01  0.7238480395E+15  0.1252140592E+01  0.1895111091E-17 -0.3598651027E+00
  0.4698893521E-01  0.1000000000E+01  0.2570463033E+00  0.8943688189E+00 -0.8467761262E-19 -0.1460704123E+00  0.7238480395E+15  0.6865552559E+00 -0.2355637673E-17 -0.3231301206E+00
  0.0000000000E+00  0.1000000000E+01  0.2570463033E+00 -0.1450268904E-01  0.1966796600E-19 -0.1186541816E+00  0.7238480394E+15 -0.1740744276E-01  0.3327317923E-19 -0.8584530927E-01
  0.4000000000E+00  0.1000000000E+01  0.3530110648E+00  0.1622567359E+01  0.2505579498E-17  0.3574814277E+00  0.7238480395E+15  0.3105454230E+01  0.1632114373E-17 -0.4525957147E+00
  0.3530110648E+00  0.1000000000E+01  0.3530110648E+00  0.1627923956E+01  0.3676031667E-17  0.2270075479E+00  0.7238480395E+15  0.2214080512E+01  0.3171356995E-17 -0.6692531010E+00
  0.2570463033E+00  0.1000000000E+01  0.3530110648E+00  0.1505999919E+01 -0.9992494890E-17  0.1570006198E+00  0.7238480395E+15  0.1658152356E+01  0.8425206705E-18 -0.5945604494E+00
  0.1429536967E+00  0.1000000000E+01  0.3530110648E+00  0.1658220199E+01 -0.4801760741E-18 -0.1943009006E+00  0.7238480395E+15  0.1492578011E+01  0.3294572429E-17 -0.6342530819E+00
  0.4698893521E-01  0.1000000000E+01  0.3530110648E+00  0.1203674211E+01  0.2067102096E-17 -0.2983238384E+00  0.7238480394E+15  0.7742591709E+00  0.3146211683E-17 -0.4224938751E+00
  0.0000000000E+00  0.1000000000E+01  0.3530110648E+00 -0.1776189034E-01  0.2640066056E-19 -0.1300949711E+00  0.7238480394E+15 -0.2283515826E-01  0.7278040883E-20 -0.6068749258E-01
  0.4000000000E+00  0.1000000000E+01  0.4000000000E+00  0.2082587305E+01  0.2715284288E-17  0.5407159411E+00  0.7238480395E+15  0.3471396659E+01  0.3523954072E-17 -0.9379556430E+00
  0.3530110648E+00  0.1000000000E+01  0.4000000000E+00  0.1964403209E+01  0.8262746395E-18  0.3576967315E+00  0.7238480395E+15  0.2415622479E+01  0.2442802120E-17 -0.7119939948E+00
  0.2570463033E+00  0.1000000000E+01  0.4000000000E+00  0.1739369267E+01  0.4990178419E-17  0.6990028344E-01  0.7238480395E+15  0.1769106905E+01  0.2453796721E-17 -0.5854950651E+00
  0.1429536967E+00  0.1000000000E+01  0.4000000000E+00  0.1933378770E+01  0.3711987364E-17 -0.2738711567E+00  0.7238480395E+15  0.1612251604E+01  0.3467578574E-18 -0.6125572315E+00
  0.4698893521E-01  0.1000000000E+01  0.4000000000E+00  0.1357450505E+01  0.1040118105E-17 -0.3550466333E+00  0.7238480394E+15  0.7942039501E+00  0.9033399860E-18 -0.3687549476E+00
  0.0000000000E+00  0.1000000000E+01  0.4000000000E+00 -0.9667738179E-02 -0.6119580771E-20 -0.1099856245E+00  0.7238480394E+15 -0.1472332112E-01 -0.1132590503E-19 -0.1988192172E-01
ZONE I=6, J=6, K=1, F=POINT
  0.8000000000E+00  0.1000000000E+01  0.0000000000E+00  0.3189407839E+00 -0.1500641148E-18 -0.1079073620E-01  0.7238480395E+15  0.4395803734E+00  0.9147828112E-19 -0.1659821926E-01
  0.7530110648E+00  0.1000000000E+01  0.0000000000E+00  0.3019129024E+00  0.6576456432E-17  0.7155956130E-02  0.7238480395E+15  0.4043876727E+00  0.9358268131E-17  0.2156076978E-02
  0.6570463033E+00  0.1000000000E+01  0.0000000000E+00  0.2800654425E+00  0.3745917564E-17 -0.1167347296E-02  0.7238480395E+15  0.3523651162E+00  0.4569374926E-17 -0.7090211769E-02
  0.5429536967E+00  0.1000000000E+01  0.0000000000E+00  0.2382071598E+00  0.6257458667E-17  0.3403048685E-02  0.7238480395E+15  0.2919286708E+00  0.7577102022E-17 -0.2658441288E-02
  0.4469889352E+00  0.1000000000E+01  0.0000000000E+00  0.1964623634E+00  0.6046888030E-17  0.9995326914E-03  0.7238480395E+15  0.2386584341E+00  0.7351403255E-17 -0.3732585686E-02
  0.4000000000E+00  0.1000000000E+01  0.0000000000E+00  0.1984323967E+00  0.4906463168E-19  0.1291188932E-01  0.7238480395E+15  0.2286117709E+00  0.1322171488E-18  0.1210826414E-01
  0.8000000000E+00  0.1000000000E+01  0.4698893521E-01  0.5539583695E+00 -0.2316443525E-16  0.1147863164E+01  0.7238480395E+15  0.1493705713E+01 -0.3448425532E-16  0.8554432119E+00
  0.7530110648E+00  0.1000000000E+01  0.4698893521E-01  0.7753108942E+00 -0.2982925033E-16  0.1117341798E+01  0.7238480395E+15  0.1622868577E+01 -0.7746645657E-16  0.8035549984E+00
  0.6570463033E+00  0.1000000000E+01  0.4698893521E-01  0.5634809526E+00  0.5084072048E-18  0.1159827894E+01  0.7238480395E+15  0.1267363904E+01  0.8532574144E-17  0.9092574030E+00
  0.5429536967E+00  0.1000000000E+01  0.4698893521E-01  0.5500643497E+00  0.8430236324E-17  0.1139337899E+01  0.7238480395E+15  0.1180331477E+01  0.1899638817E-16  0.8881450019E+00
  0.4469889352E+00  0.1000000000E+01  0.4698893521E-01  0.4078491961E+00  0.2463135516E-17  0.1037434315E+01  0.7238480395E+15  0.9731261469E+00 -0.6015181465E-18  0.6108057657E+00
  0.4000000000E+00  0.1000000000E+01  0.4698893521E-01  0.5343651282E+00  0.1874951606E-17  0.8895227524E+00  0.7238480395E+15  0.1015369391E+01 -0.9193724281E-18  0.3656883631E+00
  0.8000000000E+00  0.1000000000E+01  0.1429536967E+00  0.1488294078E+01 -0.5289803631E-16  0.8325995431E+00  0.7238480395E+15  0.2587977826E+01 -0.2307193502E-16  0.8285220560E+00
  0.7530110648E+00  0.1000000000E+01  0.1429536967E+00  0.1846014442E+01 -0.4143779212E-16  0.1032228187E+01  0.7238480395E+15  0.2792570214E+01 -0.4736045819E-16  0.9399390661E+00
  0.6570463033E+00  0.1000000000E+01  0.1429536967E+00  0.1403772662E+01 -0.7488643976E-17  0.1042953303E+01  0.7238480395E+15  0.2179146781E+01 -0.3900919406E-16  0.7657976097E+00
  0.5429536967E+00  0.1000000000E+01  0.1429536967E+00  0.1256169289E+01  0.1766113380E-16  0.1120718113E+01  0.7238480395E+15  0.2006732471E+01  0.3882656885E-16  0.6636213306E+00
  0.4469889352E+00  0.1000000000E+01  0.1429536967E+00  0.9440647607E+00  0.1914207356E-17  0.1060261697E+01  0.7238480395E+15  0.1637690049E+01 -0.2097320977E-18  0.5177214845E+00
  0.4000000000E+00  0.1000000000E+01  0.1429536967E+00  0.1110623433E+01  0.1692487005E-16  0.1060018561E+01  0.7238480395E+15  0.1679074650E+01  0.2461451519E-16  0.4982518409E+00
  0.8000000000E+00  0.1000000000E+01  0.2570463033E+00  0.2759358725E+01 -0.1303474620E-16  0.5141684439E-01  0.7238480395E+15  0.4028269466E+01 -0.9893988566E-17  0.1503241656E+00
  0.7530110648E+00  0.1000000000E+01  0.2570463033E+00  0.2742249060E+01  0.8921747119E-17  0.2721841934E+00  0.7238480395E+15  0.3830298687E+01  0.4474716566E-17  0.3431629071E+00
  0.6570463033E+00  0.1000000000E+01  0.2570463033E+00  0.2367568382E+01 -0.1074103445E-16  0.2050368517E+00  0.7238480395E+15  0.3134303232E+01 -0.3187579256E-16  0.4952594785E+00
  0.5429536967E+00  0.1000000000E+01  0.2570463033E+00  0.1737482221E+01  0.1015632484E-16  0.3574789414E+00  0.7238480395E+15  0.2630357913E+01  0.2483512745E-16  0.8785942720E+00
  0.4469889352E+00  0.1000000000E+01  0.2570463033E+00  0.1243125532E+01  0.1650145349E-16  0.2846368421E+00  0.7238480395E+15  0.2300837276E+01  0.1607316439E-16  0.3310242902E+00
  0.4000000000E+00  0.1000000000E+01  0.2570463033E+00  0.1387645126E+01  0.5453897150E-17  0.3591805983E+00  0.7238480395E+15  0.2217610916E+01  0.6241963775E-17  0.7223985966E-01
  0.8000000000E+00  0.1000000000E+01  0.3530110648E+00  0.3182428390E+01 -0.2064482911E-17  0.1493330583E+00  0.7238480395E+15  0.4609986469E+01 -0.3140287168E-17 -0.4960872105E+00
  0.7530110648E+00  0.1000000000E+01  0.3530110648E+00  0.3354224082E+01  0.1314383725E-16  0.3942152833E+00  0.7238480395E+15  0.4377440670E+01  0.6951793623E-16 -0.3505248675E+00
  0.6570463033E+00  0.1000000000E+01  0.3530110648E+00  0.2726502264E+01 -0.4433681135E-16  0.8028426372E+00  0.7238480395E+15  0.2939976171E+01 -0.4398295867E-16  0.2935343532E+00
  0.5429536967E+00  0.1000000000E+01  0.3530110648E+00  0.2203959135E+01 -0.4647576951E-16  0.1392765007E+01  0.7238480395E+15  0.3187948999E+01 -0.1054868753E-15  0.1303988503E+01
  0.4469889352E+00  0.1000000000E+01  0.3530110648E+00  0.1857881455E+01 -0.1024834311E-16  0.6951387681E+00  0.7238480395E+15  0.3830636669E+01 -0.4155797293E-18  0.1840516914E+00
  0.4000000000E+00  0.1000000000E+01  0.3530110648E+00  0.1659768474E+01  0.2658829733E-17  0.3580931094E+00  0.7238480395E+15  0.3134813886E+01  0.1468768475E-17 -0.4511960889E+00
  0.8000000000E+00  0.1000000000E+01  0.4000000000E+00  0.3166532012E+01 -0.1250209073E-16 -0.2284879455E-01  0.7238480395E+15  0.4797446978E+01 -0.1264731935E-16 -0.1179101816E+01
  0.7530110648E+00  0.1000000000E+01  0.4000000000E+00  0.3289989161E+01 -0.1639059308E-16  0.4191062929E+00  0.7238480395E+15  0.4507576658E+01 -0.3795004237E-17 -0.1095415869E+01
  0.6570463033E+00  0.1000000000E+01  0.4000000000E+00  0.2442317938E+01  0.1345185930E-16  0.1530302408E+01  0.7238480395E+15  0.2633794908E+01  0.7287746394E-17 -0.7610790846E+00
  0.5429536967E+00  0.1000000000E+01  0.4000000000E+00  0.2427066104E+01  0.6494823099E-16  0.2740550981E+01  0.7238480395E+15  0.3358344628E+01  0.6092026009E-16  0.2457088384E+00
  0.4469889352E+00  0.1000000000E+01  0.4000000000E+00  0.2794446099E+01  0.2174329044E-16  0.1242509949E+01  0.7238480395E+15  0.4797271355E+01  0.7770199312E-16 -0.6960036617E+00
  0.4000000000E+00  0.1000000000E+01  0.4000000000E+00  0.2095954429E+01  0.2874564430E-17  0.5432337016E+00  0.7238480395E+15  0.3476025262E+01  0.3366559648E-17 -0.9335855766E+00
ZONE I=6, J=6, K=1, F=POINT
  0.1200000000E+01  0.1000000000E+01  0.0000000000E+00  0.2201462496E+00  0.6456531302E-20  0.4265797213E-01  0.7238480395E+15  0.4962867722E+00  0.2258562403E-18  0.3862406358E-01
  0.1153011065E+01  0.1000000000E+01  0.0000000000E+00  0.2608227904E+00  0.1099632592E-16 -0.6061403388E-02  0.7238480395E+15  0.5212737444E+00  0.2407034220E-16 -0.1001438909E-01
  0.1057046303E+01  0.1000000000E+01  0.0000000000E+00  0.2867420338E+00  0.7408832037E-17  0.8980966899E-02  0.7238480395E+15  0.5111551913E+00  0.1316107158E-16  0.3944806428E-02
  0.9429536967E+00  0.1000000000E+01  0.0000000000E+00  0.2954646911E+00 -0.1390448020E-18 -0.6614103392E-02  0.7238480395E+15  0.4738781572E+00  0.2861844754E-18 -0.1154973851E-01
  0.8469889352E+00  0.1000000000E+01  0.0000000000E+00  0.3046522790E+00 -0.1038592443E-18  0.6806820858E-02  0.7238480395E+15  0.4445637168E+00 -0.3418972903E-19  0.1879327599E-02
  0.8000000000E+00  0.1000000000E+01  0.0000000000E+00  0.2716352999E+00 -0.1524343680E-18 -0.1028721006E-01  0.7238480395E+15  0.3927305355E+00  0.1140585489E-18 -0.1617409653E-01
  0.1200000000E+01  0.1000000000E+01  0.4698893521E-01  0.2167595358E+01 -0.3222964438E-16  0.2933939578E-01  0.7238480395E+15  0.3489646161E+01 -0.9084449108E-16  0.6524778319E+00
  0.1153011065E+01  0.1000000000E+01  0.4698893521E-01  0.1470693702E+01 -0.1891946732E-16  0.2856536398E+00  0.7238480395E+15  0.2794772029E+01 -0.6087619126E-16  0.7990324714E+00
  0.1057046303E+01  0.1000000000E+01  0.4698893521E-01  0.1416370362E+01 -0.1351693845E-16  0.5266170200E+00  0.7238480395E+15  0.2663922230E+01  0.1759501639E-17  0.7900837382E+00
  0.9429536967E+00  0.1000000000E+01  0.4698893521E-01  0.8878726555E+00 -0.1204452343E-16  0.7880513872E+00  0.7238480395E+15  0.2022969998E+01 -0.4319278814E-16  0.7985642420E+00
  0.8469889352E+00  0.1000000000E+01  0.4698893521E-01  0.8291433363E+00 -0.2747017348E-16  0.9920940576E+00  0.7238480395E+15  0.1856862889E+01 -0.7286164644E-16  0.7799326335E+00
  0.8000000000E+00  0.1000000000E+01  0.4698893521E-01  0.4909887687E+00 -0.2236292241E-16  0.1149606370E+01  0.7238480395E+15  0.1431640234E+01 -0.3400079874E-16  0.8573162073E+00
  0.1200000000E+01  0.1000000000E+01  0.1429536967E+00  0.5362836470E+01 -0.5135622133E-16 -0.4284084450E+00  0.7238480395E+15  0.6900429536E+01 -0.9154971411E-16  0.6245299401E+00
  0.1153011065E+01  0.1000000000E+01  0.1429536967E+00  0.3793381055E+01 -0.1056455506E-15 -0.5286256719E+00  0.7238480395E+15  0.5415445065E+01 -0.2109564803E-16  0.4050951815E+00
  0.1057046303E+01  0.1000000000E+01  0.1429536967E+00  0.3453752637E+01 -0.3791155791E-16 -0.2996624211E-01  0.7238480395E+15  0.4974697299E+01 -0.4090525364E-16  0.6196445440E+00
  0.9429536967E+00  0.1000000000E+01  0.1429536967E+00  0.2280880095E+01 -0.3271677803E-16  0.1939505417E+00  0.7238480395E+15  0.3677700505E+01 -0.3331323572E-16  0.5410573987E+00
  0.8469889352E+00  0.1000000000E+01  0.1429536967E+00  0.2037213739E+01 -0.5030018884E-16  0.7445471762E+00  0.7238480395E+15  0.3324089171E+01 -0.7981072142E-16  0.8435739303E+00
  0.8000000000E+00  0.1000000000E+01  0.1429536967E+00  0.1405483173E+01 -0.5538676688E-16  0.8304282560E+00  0.7238480395E+15  0.2501617822E+01 -0.2507407718E-16  0.8267809745E+00
  0.1200000000E+01  0.1000000000E+01  0.2570463033E+00  0.5906691886E+01 -0.2656259650E-16 -0.1497263124E+01  0.7238480395E+15  0.7627355659E+01 -0.2637666443E-16 -0.5219060330E+00
  0.1153011065E+01  0.1000000000E+01  0.2570463033E+00  0.5221534111E+01  0.4841868564E-16 -0.1676958586E+01  0.7238480395E+15  0.7120824714E+01 -0.1406702089E-15 -0.7921452825E+00
  0.1057046303E+01  0.1000000000E+01  0.2570463033E+00  0.4335243984E+01 -0.3884193072E-16 -0.1095954780E+01  0.7238480395E+15  0.6203908858E+01 -0.3595919767E-16 -0.5131872987E+00
  0.9429536967E+00  0.1000000000E+01  0.2570463033E+00  0.3466245801E+01 -0.9003536465E-18 -0.8592847794E+00  0.7238480395E+15  0.5109861740E+01 -0.8875142421E-16 -0.6394935297E+00
  0.8469889352E+00  0.1000000000E+01  0.2570463033E+00  0.3026461148E+01 -0.8257077884E-17 -0.6033486276E-01  0.7238480395E+15  0.4461896369E+01  0.3991396856E-16  0.6566918616E-01
  0.8000000000E+00  0.1000000000E+01  0.2570463033E+00  0.2720991525E+01 -0.1240558208E-16  0.4878614271E-01  0.7238480395E+15  0.3989496154E+01 -0.1023463579E-16  0.1479643781E+00
  0.1200000000E+01  0.1000000000E+01  0.3530110648E+00  0.6390656695E+01  0.1311670386E-17 -0.2464424553E+01  0.7238480395E+15  0.8308610417E+01  0.6069217877E-18 -0.1581150080E+01
  0.1153011065E+01  0.1000000000E+01  0.3530110648E+00  0.5435694284E+01  0.1768419382E-17 -0.2332514191E+01  0.7238480395E+15  0.7598291716E+01 -0.2633294787E-16 -0.1581822020E+01
  0.1057046303E+01  0.1000000000E+01  0.3530110648E+00  0.4596210328E+01 -0.3965202381E-16 -0.1757812656E+01  0.7238480395E+15  0.6896741348E+01 -0.4753016478E-16 -0.1404046715E+01
  0.9429536967E+00  0.1000000000E+01  0.3530110648E+00  0.3713038112E+01 -0.7860164819E-17 -0.1190948528E+01  0.7238480395E+15  0.5640715881E+01 -0.6998733792E-16 -0.1401101456E+01
  0.8469889352E+00  0.1000000000E+01  0.3530110648E+00  0.3388686513E+01 -0.3849857422E-16 -0.1974306767E+00  0.7238480395E+15  0.4896846431E+01  0.8871066586E-17 -0.7227066859E+00
  0.8000000000E+00  0.1000000000E+01  0.3530110648E+00  0.3129877336E+01 -0.1317327210E-17  0.1489332588E+00  0.7238480395E+15  0.4562455339E+01 -0.2789693116E-17 -0.4964042979E+00
  0.1200000000E+01  0.1000000000E+01  0.4000000000E+00  0.6173478500E+01 -0.9553676271E-18 -0.2884339376E+01  0.7238480395E+15  0.8232127435E+01 -0.1894180002E-17 -0.2035751622E+01
  0.1153011065E+01  0.1000000000E+01  0.4000000000E+00  0.5537934853E+01 -0.3502091461E-16 -0.2988803351E+01  0.7238480395E+15  0.7847278743E+01 -0.2351545275E-17 -0.2286156431E+01
  0.1057046303E+01  0.1000000000E+01  0.4000000000E+00  0.4515282387E+01 -0.4046463363E-16 -0.2412908429E+01  0.7238480395E+15  0.7029851052E+01 -0.1741614908E-16 -0.2015784552E+01
  0.9429536967E+00  0.1000000000E+01  0.4000000000E+00  0.3679776732E+01 -0.2813345679E-17 -0.1739927884E+01  0.7238480395E+15  0.5854427596E+01 -0.4876980190E-16 -0.1906143960E+01
  0.8469889352E+00  0.1000000000E+01  0.4000000000E+00  0.3201872375E+01 -0.3040707999E-16 -0.5371954017E+00  0.7238480395E+15  0.4924592215E+01 -0.1351623255E-16 -0.1376712408E+01
  0.8000000000E+00  0.1000000000E+01  0.4000000000E+00  0.3161496331E+01 -0.1217555096E-16 -0.2585858491E-01  0.7238480395E+15  0.4797181328E+01 -0.1260426561E-16 -0.1180833773E+01
ZONE I=6, J=6, K=1, F=POINT
  0.1600000000E+01  0.1000000000E+01  0.0000000000E+00  0.2522644282E+00 -0.1310693418E-17 -0.6469304295E-01  0.7238480394E+15  0.6972708951E+00 -0.9178999853E-18 -0.8981653422E-01
  0.1553011065E+01  0.1000000000E+01  0.0000000000E+00  0.1394024826E+00 -0.6951868928E-17  0.4679402375E-01  0.7238480394E+15  0.5699592571E+00 -0.2823390850E-16  0.4229569151E-01
  0.1457046303E+01  0.1000000000E+01  0.0000000000E+00  0.1577712188E+00 -0.4256414138E-17  0.8902574749E-03  0.7238480394E+15  0.5407746450E+00 -0.1290293187E-16 -0.4681085404E-02
  0.1342953697E+01  0.1000000000E+01  0.0000000000E+00  0.2111755929E+00  0.1167568479E-16  0.3339028402E-01  0.7238480395E+15  0.5433092183E+00  0.3020977887E-16  0.2844812983E-01
  0.1246988935E+01  0.1000000000E+01  0.0000000000E+00  0.2289203269E+00  0.2024962064E-17 -0.3813921584E-02  0.7238480395E+15  0.5235682587E+00  0.2457567267E-17 -0.8279845706E-02
  0.1200000000E+01  0.1000000000E+01  0.0000000000E+00  0.3120239658E+00  0.2790819622E-19  0.4266508166E-01  0.7238480395E+15  0.5872159192E+00  0.3510470554E-18  0.3867649962E-01
  0.1600000000E+01  0.1000000000E+01  0.4698893521E-01  0.2312786611E+01 -0.7574562593E-16  0.1058519221E+01  0.7238480394E+15  0.3817814940E+01 -0.1101201061E-15  0.1368405766E+01
  0.1553011065E+01  0.1000000000E+01  0.4698893521E-01  0.2982750875E+01 -0.6398134586E-16  0.4377364267E+00  0.7238480394E+15  0.4340690949E+01 -0.2331636799E-16  0.8426790099E+00
  0.1457046303E+01  0.1000000000E+01  0.4698893521E-01  0.2169009833E+01  0.6493669992E-17  0.3073826617E+00  0.7238480394E+15  0.3539724917E+01 -0.3394586387E-16  0.1017054047E+01
  0.1342953697E+01  0.1000000000E+01  0.4698893521E-01  0.2345041215E+01  0.2204142450E-16  0.2451579854E+00  0.7238480395E+15  0.3715373224E+01  0.3448645307E-16  0.9068275544E+00
  0.1246988935E+01  0.1000000000E+01  0.4698893521E-01  0.1905848216E+01 -0.2118876175E-16  0.2002850380E+00  0.7238480395E+15  0.3186869938E+01  0.3213124773E-16  0.8447682096E+00
  0.1200000000E+01  0.1000000000E+01  0.4698893521E-01  0.2268559668E+01 -0.3636659974E-16  0.2394363870E-01  0.7238480395E+15  0.3587684602E+01 -0.9537664784E-16  0.6471832121E+00
  0.1600000000E+01  0.1000000000E+01  0.1429536967E+00  0.5737167843E+01 -0.3214437095E-15 -0.1687221461E+01  0.7238480394E+15  0.7379652912E+01 -0.2299921892E-15 -0.2220077985E+00
  0.1553011065E+01  0.1000000000E+01  0.1429536967E+00  0.7945951678E+01 -0.1446372854E-15 -0.7640004483E+00  0.7238480394E+15  0.9120861209E+01 -0.1925414616E-15  0.6434308581E+00
  0.1457046303E+01  0.1000000000E+01  0.1429536967E+00  0.6105188569E+01 -0.6151005612E-17 -0.7196673263E+00  0.7238480395E+15  0.7444918470E+01  0.7818335266E-16  0.5906003785E+00
  0.1342953697E+01  0.1000000000E+01  0.1429536967E+00  0.6221760598E+01  0.7214662958E-16 -0.6340716817E-01  0.7238480395E+15  0.7699592408E+01  0.1268250531E-15  0.1119317499E+01
  0.1246988935E+01  0.1000000000E+01  0.1429536967E+00  0.5028453214E+01  0.3551392494E-16 -0.6236769315E+00  0.7238480395E+15  0.6325810962E+01 -0.6756999562E-16  0.4908537562E+00
  0.1200000000E+01  0.1000000000E+01  0.1429536967E+00  0.5530739599E+01 -0.5619419829E-16 -0.4230225658E+00  0.7238480395E+15  0.7061130592E+01 -0.9517071794E-16  0.6293372734E+00
  0.1600000000E+01  0.1000000000E+01  0.2570463033E+00  0.1072350333E+02  0.7293866657E-16 -0.3788463511E+01  0.7238480394E+15  0.1254077110E+02  0.7831381958E-16 -0.2054876232E+01
  0.1553011065E+01  0.1000000000E+01  0.2570463033E+00  0.1011785903E+02  0.9042216594E-16 -0.2511579486E+01  0.7238480394E+15  0.1167618480E+02  0.1162789293E-15 -0.9134834042E+00
  0.1457046303E+01  0.1000000000E+01  0.2570463033E+00  0.9205612253E+01  0.1229990300E-15 -0.2129855681E+01  0.7238480394E+15  0.1078669160E+02  0.2130537189E-15 -0.8608488624E+00
  0.1342953697E+01  0.1000000000E+01  0.2570463033E+00  0.7858051646E+01  0.7831091135E-16 -0.1067710881E+01  0.7238480395E+15  0.9398510161E+01  0.1653439428E-15  0.1078565664E+00
  0.1246988935E+01  0.1000000000E+01  0.2570463033E+00  0.6621989976E+01 -0.5112590247E-17 -0.1796767423E+01  0.7238480395E+15  0.8090265306E+01  0.8191345624E-16 -0.7315108542E+00
  0.1200000000E+01  0.1000000000E+01  0.2570463033E+00  0.5943947706E+01 -0.2572554255E-16 -0.1487629839E+01  0.7238480395E+15  0.7665270405E+01 -0.2722661611E-16 -0.5149981313E+00
  0.1600000000E+01  0.1000000000E+01  0.3530110648E+00  0.9304355491E+01  0.1737868572E-15 -0.3443318765E+01  0.7238480394E+15  0.1129005706E+02  0.1679596048E-15 -0.2069993684E+01
  0.1553011065E+01  0.1000000000E+01  0.3530110648E+00  0.9943100639E+01  0.1635101824E-15 -0.3306220542E+01  0.7238480394E+15  0.1173247122E+02  0.1760050299E-15 -0.2007751461E+01
  0.1457046303E+01  0.1000000000E+01  0.3530110648E+00  0.9312069238E+01  0.1100029779E-15 -0.2950524678E+01  0.7238480394E+15  0.1099145009E+02  0.1937645324E-15 -0.1673070043E+01
  0.1342953697E+01  0.1000000000E+01  0.3530110648E+00  0.8343470640E+01  0.8430285825E-16 -0.2306057746E+01  0.7238480395E+15  0.9957114998E+01  0.1239730141E-15 -0.1096585924E+01
  0.1246988935E+01  0.1000000000E+01  0.3530110648E+00  0.6849456500E+01  0.4561392132E-16 -0.2539316498E+01  0.7238480395E+15  0.8531098165E+01 -0.1501479864E-16 -0.1526434263E+01
  0.1200000000E+01  0.1000000000E+01  0.3530110648E+00  0.6469249056E+01  0.1336801956E-17 -0.2464650370E+01  0.7238480395E+15  0.8385078378E+01  0.7603935410E-18 -0.1581257363E+01
  0.1600000000E+01  0.1000000000E+01  0.4000000000E+00  0.9518078757E+01  0.1684345718E-15 -0.4347345551E+01  0.7238480394E+15  0.1164156946E+02  0.1674004354E-15 -0.2664894848E+01
  0.1553011065E+01  0.1000000000E+01  0.4000000000E+00  0.9380142781E+01  0.2009506722E-15 -0.3510343908E+01  0.7238480394E+15  0.1121824809E+02  0.1644101676E-15 -0.1939732580E+01
  0.1457046303E+01  0.1000000000E+01  0.4000000000E+00  0.9331457959E+01  0.1445154042E-15 -0.3652437725E+01  0.7238480394E+15  0.1101753030E+02  0.1412442087E-15 -0.2179622654E+01
  0.1342953697E+01  0.1000000000E+01  0.4000000000E+00  0.8163995567E+01  0.6791392744E-16 -0.2860653510E+01  0.7238480395E+15  0.9863917088E+01  0.1730018223E-15 -0.1537947416E+01
  0.1246988935E+01  0.1000000000E+01  0.4000000000E+00  0.7020070292E+01  0.1714792018E-16 -0.3199317623E+01  0.7238480395E+15  0.8846825574E+01 -0.7683487973E-17 -0.2181736422E+01
  0.1200000000E+01  0.1000000000E+01  0.4000000000E+00  0.6148476717E+01 -0.1050748938E-17 -0.2871893312E+01  0.7238480395E+15  0.8211135901E+01 -0.1432551993E-17 -0.2026054828E+01
ZONE I=6, J=6, K=1, F=POINT
  0.2000000000E+01  0.1000000000E+01  0.0000000000E+00  0.2380608264E+01  0.9123165659E-19  0.2121324536E+02  0.7238480394E+15  0.2479260009E+01  0.2323173255E-18  0.2220419593E+02
  0.1953011065E+01  0.1000000000E+01  0.0000000000E+00  0.1268587360E+01 -0.3826761553E-16 -0.1780546900E+00  0.7238480394E+15  0.1824733549E+01 -0.4839550348E-16 -0.1054504630E+00
  0.1857046303E+01  0.1000000000E+01  0.0000000000E+00 -0.2895835336E+00 -0.1720912477E-16  0.1711129440E+00  0.7238480394E+15  0.3433153803E+00  0.1769098279E-16  0.1449520483E+00
  0.1742953697E+01  0.1000000000E+01  0.0000000000E+00  0.2073057376E+00  0.1831644755E-18 -0.3429257320E-01  0.7238480394E+15  0.7351490253E+00  0.1858264516E-17 -0.2983213785E-01
  0.1646988935E+01  0.1000000000E+01  0.0000000000E+00 -0.7851924304E-02 -0.4876105234E-18  0.6555718499E-01  0.7238480394E+15  0.5415538665E+00 -0.1756553638E-17  0.5329394527E-01
  0.1600000000E+01  0.1000000000E+01  0.0000000000E+00  0.2138418489E+00 -0.1363394946E-17 -0.7676349180E-01  0.7238480394E+15  0.6420767902E+00 -0.1069496226E-17 -0.1007237147E+00
  0.2000000000E+01  0.1000000000E+01  0.4698893521E-01 -0.5900888536E-01  0.5549151107E-18  0.4846043214E+02  0.7238480394E+15 -0.1077401626E-01  0.7347424235E-18  0.4920240933E+02
  0.1953011065E+01  0.1000000000E+01  0.4698893521E-01  0.9759415263E+01  0.1221793406E-15  0.3734264453E+00  0.7238480394E+15  0.1137587835E+02  0.1358766266E-15  0.2000942928E+01
  0.1857046303E+01  0.1000000000E+01  0.4698893521E-01  0.1023563996E+02  0.1903118149E-15 -0.2653877365E+01  0.7238480394E+15  0.1214303056E+02  0.3260608247E-15 -0.1176270253E+01
  0.1742953697E+01  0.1000000000E+01  0.4698893521E-01  0.4533833512E+01 -0.4885576946E-16 -0.7097234952E+00  0.7238480394E+15  0.6324920159E+01 -0.5466704372E-16  0.4811525528E+00
  0.1646988935E+01  0.1000000000E+01  0.4698893521E-01  0.3304789303E+01 -0.6975684148E-16  0.2808042785E-01  0.7238480394E+15  0.5341101769E+01 -0.1777215150E-15  0.5711233507E+00
  0.1600000000E+01  0.1000000000E+01  0.4698893521E-01  0.2160336289E+01 -0.7339643171E-16  0.1041792935E+01  0.7238480394E+15  0.3662023519E+01 -0.1068418533E-15  0.1347884487E+01
  0.2000000000E+01  0.1000000000E+01  0.1429536967E+00 -0.2606682799E+00  0.4677274072E-17  0.5053412827E+02  0.7238480394E+15 -0.2616865750E+00  0.3026165559E-17  0.5113495232E+02
  0.1953011065E+01  0.1000000000E+01  0.1429536967E+00  0.1536003345E+01 -0.6263911512E-15  0.1509081018E+02  0.7238480394E+15  0.3213488307E+01 -0.4734262706E-15  0.1709473401E+02
  0.1857046303E+01  0.1000000000E+01  0.1429536967E+00  0.1082157523E+02 -0.1652002870E-15 -0.4835089660E+01  0.7238480394E+15  0.1282367472E+02 -0.2852267123E-15 -0.2932048717E+01
  0.1742953697E+01  0.1000000000E+01  0.1429536967E+00  0.8083509367E+01 -0.2320843566E-15 -0.4575446763E+01  0.7238480394E+15  0.1024702410E+02 -0.2008595101E-16 -0.2797332747E+01
  0.1646988935E+01  0.1000000000E+01  0.1429536967E+00  0.7791937821E+01 -0.1900449019E-15 -0.2081700035E+01  0.7238480394E+15  0.1038023078E+02 -0.1834985289E-15 -0.5127895306E+00
  0.1600000000E+01  0.1000000000E+01  0.1429536967E+00  0.5376635534E+01 -0.3405326373E-15 -0.1688195730E+01  0.7238480394E+15  0.7051461743E+01 -0.2477359042E-15 -0.2265459336E+00
  0.2000000000E+01  0.1000000000E+01  0.2570463033E+00  0.2531506042E-01  0.9717689193E-18  0.4998290341E+02  0.7238480394E+15  0.2838979888E-01  0.1371308739E-17  0.5054932677E+02