TITLE = "Generated from ../MESH/Convergence_0000000000.hmesh and Convergence_0000000300.hsol"
VARIABLES = "x","y","z","veloT_x","veloT_y","veloT_z","slr_4","velo_x","velo_y","velo_z"
ZONE I=6, J=6, K=1, F=POINT
  0.4000000000E+00  0.1000000000E+01  0.0000000000E+00 -0.6425291241E-02  0.2649129819E-19  0.6879721718E-02  0.6859857219E+15 -0.1242734674E-01  0.2786757008E-19  0.8083435075E-02
  0.3530110648E+00  0.1000000000E+01  0.0000000000E+00  0.9348879017E-02  0.5161911757E-20  0.1423342813E-04  0.6859857219E+15  0.6232347929E-02  0.9471129318E-20  0.7702103164E-03
  0.2570463033E+00  0.1000000000E+01  0.0000000000E+00  0.9818865966E-02  0.3728841983E-21  0.2332471155E-02  0.6859857219E+15  0.9748485279E-02  0.1297570712E-20  0.2682884423E-02
  0.1429536967E+00  0.1000000000E+01  0.0000000000E+00  0.1118980649E-01  0.1038482541E-20 -0.5400341600E-03  0.6859857219E+15  0.1785875808E-01  0.6253170657E-21  0.8115669669E-03
  0.4698893521E-01  0.1000000000E+01  0.0000000000E+00  0.1264878303E-01 -0.2763027925E-20  0.2115417271E-02  0.6859857219E+15  0.2171515506E-01 -0.6174823481E-21  0.2477989638E-03
  0.0000000000E+00  0.1000000000E+01  0.0000000000E+00 -0.8075699457E-02  0.2084820046E-22  0.2251163959E-02  0.6859857219E+15 -0.6352708766E-02  0.6490978469E-23  0.5444187090E-03
  0.4000000000E+00  0.1000000000E+01  0.4698893521E-01  0.1497029259E+00 -0.2789939313E-18 -0.1105028139E+00  0.6859857219E+15  0.1504424037E+00 -0.2754655469E-18 -0.1078146344E+00
  0.3530110648E+00  0.1000000000E+01  0.4698893521E-01 -0.1743962818E-01 -0.2381540256E-19 -0.6669971858E-01  0.6859857219E+15 -0.4849444200E-02 -0.1456602247E-18 -0.6852496123E-01
  0.2570463033E+00  0.1000000000E+01  0.4698893521E-01 -0.7162157500E-01  0.1399660491E-19 -0.5960167116E-01  0.6859857219E+15 -0.5009601646E-01 -0.2555822805E-19 -0.6752235304E-01
  0.1429536967E+00  0.1000000000E+01  0.4698893521E-01 -0.1242843330E+00 -0.2189171696E-18  0.7349817210E-02  0.6859857219E+15 -0.7435123379E-01 -0.1044589402E-18 -0.2765479201E-01
  0.4698893521E-01  0.1000000000E+01  0.4698893521E-01 -0.3131436894E-01 -0.1823222712E-18  0.1962463458E-01  0.6859857219E+15  0.1800209258E-01 -0.1113882235E-18 -0.2958926487E-01
  0.0000000000E+00  0.1000000000E+01  0.4698893521E-01 -0.2127948178E-01  0.3293054677E-21 -0.8147992206E-02  0.6859857219E+15 -0.1935169437E-01  0.3020950635E-21 -0.1730535544E-01
  0.4000000000E+00  0.1000000000E+01  0.1429536967E+00  0.2191864087E+00  0.3815129460E-17 -0.1497077146E+00  0.6859857219E+15  0.2407850261E+00  0.4130287439E-17 -0.1895716467E+00
  0.3530110648E+00  0.1000000000E+01  0.1429536967E+00 -0.4532380377E-02  0.9783914677E-18 -0.1789881477E+00  0.6859857219E+15  0.9315022888E-02  0.1255018593E-17 -0.2211832844E+00
  0.2570463033E+00  0.1000000000E+01  0.1429536967E+00 -0.7392537565E-01  0.4408939633E-19 -0.5628531052E-01  0.6859857219E+15 -0.3589447445E-01  0.2571744647E-19 -0.1040741778E+00
  0.1429536967E+00  0.1000000000E+01  0.1429536967E+00 -0.1483242427E+00 -0.5027168875E-19  0.6345661133E-01  0.6859857219E+15 -0.8240974462E-01 -0.8671541371E-19  0.5731064874E-03
  0.4698893521E-01  0.1000000000E+01  0.1429536967E+00 -0.2816400868E-01 -0.1744113947E-18  0.1125180247E+00  0.6859857219E+15  0.9052815843E-02  0.5778102727E-19  0.6253701290E-01
  0.0000000000E+00  0.1000000000E+01  0.1429536967E+00 -0.2391511799E-01  0.1013629388E-21 -0.1347605149E-01  0.6859857219E+15 -0.2524881231E-01 -0.1210268626E-20 -0.2034271049E-01
  0.4000000000E+00  0.1000000000E+01  0.2570463033E+00  0.2088438946E+00  0.8399325564E-18 -0.2385438000E+00  0.6859857219E+15  0.2367208761E+00  0.8466597514E-18 -0.2729840582E+00
  0.3530110648E+00  0.1000000000E+01  0.2570463033E+00  0.1489811572E+00  0.6331029485E-19 -0.2733304005E+00  0.6859857219E+15  0.1636671690E+00 -0.4362937294E-18 -0.3084737521E+00
  0.2570463033E+00  0.1000000000E+01  0.2570463033E+00  0.8809760877E-01 -0.3641846224E-19 -0.8794808065E-01  0.6859857219E+15  0.1354100592E+00 -0.2470679033E-19 -0.1274929833E+00
  0.1429536967E+00  0.1000000000E+01  0.2570463033E+00  0.2901277675E-01  0.1693526078E-18  0.2557108460E-01  0.6859857219E+15  0.8391954027E-01  0.1779307630E-18 -0.1264691355E-01
  0.4698893521E-01  0.1000000000E+01  0.2570463033E+00  0.4275763796E-01  0.7355136202E-18  0.1150583478E+00  0.6859857219E+15  0.5470209015E-01  0.4441422588E-18  0.9216638842E-01
  0.0000000000E+00  0.1000000000E+01  0.2570463033E+00 -0.1581243866E-01 -0.6615576579E-20 -0.1087451747E-01  0.6859857219E+15 -0.1617516366E-01 -0.5253252160E-20 -0.1123007868E-01
  0.4000000000E+00  0.1000000000E+01  0.3530110648E+00  0.2217498823E+00  0.7075960569E-18 -0.2937423186E+00  0.6859857219E+15  0.2528809832E+00  0.6842411489E-18 -0.2949831828E+00
  0.3530110648E+00  0.1000000000E+01  0.3530110648E+00  0.1876803604E+00  0.2854439911E-18 -0.3140387037E+00  0.6859857219E+15  0.2059421173E+00  0.2770018224E-18 -0.3174724050E+00
  0.2570463033E+00  0.1000000000E+01  0.3530110648E+00  0.1599133712E+00 -0.5831223927E-18 -0.1669031487E+00  0.6859857219E+15  0.2125470139E+00 -0.4848425258E-18 -0.1744253913E+00
  0.1429536967E+00  0.1000000000E+01  0.3530110648E+00  0.9224660521E-01 -0.4985575507E-18 -0.8494954260E-01  0.6859857219E+15  0.1453209844E+00 -0.3643529604E-18 -0.1003752071E+00
  0.4698893521E-01  0.1000000000E+01  0.3530110648E+00  0.6088101478E-01 -0.1304255207E-18  0.2186902022E-01  0.6859857219E+15  0.6580724786E-01 -0.1737915722E-21  0.6708793179E-02
  0.0000000000E+00  0.1000000000E+01  0.3530110648E+00 -0.1481688662E-01  0.1226338257E-20 -0.1205683608E-01  0.6859857219E+15 -0.1554748496E-01  0.1803335536E-21 -0.9572394302E-02
  0.4000000000E+00  0.1000000000E+01  0.4000000000E+00  0.2002250001E+00  0.7876391909E-18 -0.2620247128E+00  0.6859857219E+15  0.2341664850E+00  0.7837138918E-18 -0.2838756372E+00
  0.3530110648E+00  0.1000000000E+01  0.4000000000E+00  0.2211062151E+00  0.2300826313E-18 -0.2799907976E+00  0.6859857219E+15  0.2399726514E+00  0.2873324950E-18 -0.3016211778E+00
  0.2570463033E+00  0.1000000000E+01  0.4000000000E+00  0.1775585772E+00 -0.2539309666E-17 -0.1597066281E+00  0.6859857219E+15  0.2326209163E+00 -0.2678071527E-17 -0.1817983748E+00
  0.1429536967E+00  0.1000000000E+01  0.4000000000E+00  0.1142982944E+00 -0.1654455361E-17 -0.1175641551E+00  0.6859857219E+15  0.1671134955E+00 -0.1801300688E-17 -0.1379919023E+00
  0.4698893521E-01  0.1000000000E+01  0.4000000000E+00  0.6082362469E-01 -0.1025832208E-17 -0.2094750241E-01  0.6859857219E+15  0.6118625616E-01 -0.1026515014E-17 -0.2393711190E-01
  0.0000000000E+00  0.1000000000E+01  0.4000000000E+00 -0.7350912668E-02  0.8591261623E-20 -0.9628269677E-02  0.6859857219E+15 -0.8415599607E-02  0.8203583514E-20 -0.4181535465E-02
ZONE I=6, J=6, K=1, F=POINT
  0.8000000000E+00  0.1000000000E+01  0.0000000000E+00  0.2045106673E-01  0.1857983921E-19 -0.9955389559E-02  0.6859857219E+15  0.2204254164E-02  0.8245347890E-20 -0.9241468582E-02
  0.7530110648E+00  0.1000000000E+01  0.0000000000E+00  0.3448391138E-02  0.2613903093E-18  0.5958194014E-02  0.6859857219E+15 -0.1363540275E-01 -0.1331774204E-18  0.6377101195E-02
  0.6570463033E+00  0.1000000000E+01  0.0000000000E+00  0.2132415054E-02  0.3388874419E-19  0.4196606255E-03  0.6859857219E+15 -0.1215513768E-01 -0.1546670212E-18  0.8997059458E-03
  0.5429536967E+00  0.1000000000E+01  0.0000000000E+00  0.5082095135E-02  0.1362518938E-18  0.6772823075E-02  0.6859857219E+15 -0.5281543574E-02 -0.1397518015E-18  0.7437806712E-02
  0.4469889352E+00  0.1000000000E+01  0.0000000000E+00  0.3734586933E-02  0.1434717749E-18  0.7953652950E-03  0.6859857219E+15 -0.3143633628E-02 -0.6850027856E-19  0.1350603776E-02
  0.4000000000E+00  0.1000000000E+01  0.0000000000E+00  0.2296278710E-01  0.3053634493E-19  0.6472446337E-02  0.6859857219E+15  0.1743495791E-01  0.3178867698E-19  0.7675880844E-02
  0.8000000000E+00  0.1000000000E+01  0.4698893521E-01  0.4669704018E+00 -0.2617979274E-16 -0.5069034962E-01  0.6859857219E+15  0.4169012908E+00 -0.2561436829E-16 -0.3029245852E-01
  0.7530110648E+00  0.1000000000E+01  0.4698893521E-01  0.6880710370E+00 -0.3048001733E-16 -0.1207437905E+00  0.6859857219E+15  0.6442599984E+00 -0.2801699150E-16 -0.1024147645E+00
  0.6570463033E+00  0.1000000000E+01  0.4698893521E-01  0.4005270918E+00 -0.4552932805E-17 -0.9938235460E-01  0.6859857219E+15  0.3664767356E+00 -0.4961810026E-17 -0.8717634306E-01
  0.5429536967E+00  0.1000000000E+01  0.4698893521E-01  0.3390358206E+00  0.5672595904E-17 -0.9731272132E-01  0.6859857219E+15  0.3176627216E+00  0.5311669386E-17 -0.8838083342E-01
  0.4469889352E+00  0.1000000000E+01  0.4698893521E-01  0.1050310302E+00  0.1128211085E-17 -0.7778370999E-01  0.6859857219E+15  0.9724354602E-01  0.1179612445E-17 -0.6957559213E-01
  0.4000000000E+00  0.1000000000E+01  0.4698893521E-01  0.1992434284E+00 -0.5631634363E-18 -0.1112493225E+00  0.6859857219E+15  0.2002747848E+00 -0.5583038738E-18 -0.1085775219E+00
  0.8000000000E+00  0.1000000000E+01  0.1429536967E+00  0.5387271457E+00 -0.3384514167E-16 -0.3375801858E+00  0.6859857219E+15  0.4956122687E+00 -0.3514222471E-16 -0.3459879245E+00
  0.7530110648E+00  0.1000000000E+01  0.1429536967E+00  0.9117847751E+00 -0.2314037974E-16 -0.2276274280E+00  0.6859857219E+15  0.8770534119E+00 -0.2286207714E-16 -0.2405992905E+00
  0.6570463033E+00  0.1000000000E+01  0.1429536967E+00  0.5355306613E+00 -0.1288553980E-16 -0.2878060380E+00  0.6859857219E+15  0.5097652275E+00 -0.1180953597E-16 -0.3098380018E+00
  0.5429536967E+00  0.1000000000E+01  0.1429536967E+00  0.4716995345E+00  0.9106806234E-17 -0.1833181236E+00  0.6859857219E+15  0.4530246358E+00  0.8537470065E-17 -0.2119186161E+00
  0.4469889352E+00  0.1000000000E+01  0.1429536967E+00  0.1387409300E+00  0.4255206704E-17 -0.2206634995E+00  0.6859857219E+15  0.1390592305E+00  0.4442038707E-17 -0.2550546302E+00
  0.4000000000E+00  0.1000000000E+01  0.1429536967E+00  0.2767371418E+00  0.4667551300E-17 -0.1490969159E+00  0.6859857219E+15  0.2981542963E+00  0.4977255405E-17 -0.1889344019E+00
  0.8000000000E+00  0.1000000000E+01  0.2570463033E+00  0.4580923441E+00  0.4647565819E-17 -0.5163599599E+00  0.6859857219E+15  0.4299650404E+00  0.4564473532E-17 -0.5291840402E+00
  0.7530110648E+00  0.1000000000E+01  0.2570463033E+00  0.5065886015E+00 -0.4627246549E-19 -0.3570927104E+00  0.6859857219E+15  0.4833008340E+00 -0.1731505709E-18 -0.3742451586E+00
  0.6570463033E+00  0.1000000000E+01  0.2570463033E+00  0.3535837620E+00 -0.1130125683E-16 -0.4433012294E+00  0.6859857219E+15  0.3364679070E+00 -0.1078460376E-16 -0.4671179638E+00
  0.5429536967E+00  0.1000000000E+01  0.2570463033E+00  0.3162782998E+00  0.4600680766E-18 -0.2888242931E+00  0.6859857219E+15  0.3042919020E+00  0.2447779941E-18 -0.3195624105E+00
  0.4469889352E+00  0.1000000000E+01  0.2570463033E+00  0.1889263640E+00  0.9511595530E-18 -0.3396406476E+00  0.6859857219E+15  0.1950875311E+00  0.5062091294E-18 -0.3736548110E+00
  0.4000000000E+00  0.1000000000E+01  0.2570463033E+00  0.2438937118E+00  0.9005547050E-18 -0.2379161152E+00  0.6859857219E+15  0.2715216255E+00  0.9047626184E-18 -0.2723474956E+00
  0.8000000000E+00  0.1000000000E+01  0.3530110648E+00  0.1410847531E+00  0.1203797685E-16 -0.5842151597E+00  0.6859857219E+15  0.1207667967E+00  0.1206353776E-16 -0.5708828758E+00
  0.7530110648E+00  0.1000000000E+01  0.3530110648E+00  0.2503373270E+00  0.1642302256E-16 -0.4868687911E+00  0.6859857219E+15  0.2322029802E+00  0.1531568693E-16 -0.4753599525E+00
  0.6570463033E+00  0.1000000000E+01  0.3530110648E+00  0.1818307562E+00 -0.5447259597E-17 -0.5015632994E+00  0.6859857219E+15  0.1711616481E+00 -0.5144094601E-17 -0.4949286497E+00
  0.5429536967E+00  0.1000000000E+01  0.3530110648E+00  0.2290148276E+00 -0.9764358732E-17 -0.3537465412E+00  0.6859857219E+15  0.2204909482E+00 -0.9196282627E-17 -0.3528040091E+00
  0.4469889352E+00  0.1000000000E+01  0.3530110648E+00  0.1540441089E+00  0.3288721886E-18 -0.3711078205E+00  0.6859857219E+15  0.1595448147E+00  0.3299239204E-18 -0.3710042119E+00
  0.4000000000E+00  0.1000000000E+01  0.3530110648E+00  0.2555918413E+00  0.6731513829E-18 -0.2935064912E+00  0.6859857219E+15  0.2866906233E+00  0.6478543863E-18 -0.2947476548E+00
  0.8000000000E+00  0.1000000000E+01  0.4000000000E+00  0.9928466545E-01 -0.2437684202E-17 -0.6126509301E+00  0.6859857219E+15  0.8102613754E-01 -0.2446124359E-17 -0.6134836653E+00
  0.7530110648E+00  0.1000000000E+01  0.4000000000E+00  0.9869826620E-01  0.1224017058E-17 -0.4703164968E+00  0.6859857219E+15  0.8220747422E-01  0.1148550791E-17 -0.4730348566E+00
  0.6570463033E+00  0.1000000000E+01  0.4000000000E+00  0.1021452660E+00 -0.2528094994E-17 -0.4799617692E+00  0.6859857219E+15  0.9383148656E-01 -0.2640282178E-17 -0.4868859975E+00
  0.5429536967E+00  0.1000000000E+01  0.4000000000E+00  0.1649478568E+00  0.2080378846E-17 -0.3701817230E+00  0.6859857219E+15  0.1583033216E+00  0.1813186171E-17 -0.3829371041E+00
  0.4469889352E+00  0.1000000000E+01  0.4000000000E+00  0.1900262315E+00  0.1830255951E-17 -0.3450315283E+00  0.6859857219E+15  0.1971516701E+00  0.2024816540E-17 -0.3643041010E+00
  0.4000000000E+00  0.1000000000E+01  0.4000000000E+00  0.2124130388E+00  0.8135297680E-18 -0.2614131494E+00  0.6859857219E+15  0.2465511371E+00  0.8080336381E-18 -0.2832696904E+00
ZONE I=6, J=6, K=1, F=POINT
  0.1200000000E+01  0.1000000000E+01  0.0000000000E+00 -0.3833313089E-01  0.1098664407E-18  0.3676843770E-01  0.6859857219E+15 -0.5575170880E-01  0.1024132226E-18  0.3665974361E-01
  0.1153011065E+01  0.1000000000E+01  0.0000000000E+00 -0.7879410063E-02 -0.4255143986E-19 -0.7778978485E-02  0.6859857219E+15 -0.2617243356E-01 -0.9094986072E-18 -0.8006165436E-02
  0.1057046303E+01  0.1000000000E+01  0.0000000000E+00  0.4894355772E-03  0.6424672253E-19  0.7005096785E-02  0.6859857219E+15 -0.1956002474E-01 -0.4551800536E-18  0.6885209715E-02
  0.9429536967E+00  0.1000000000E+01  0.0000000000E+00 -0.3078068242E-02  0.1183600405E-18 -0.6939849764E-02  0.6859857219E+15 -0.2342996693E-01  0.1021563494E-18 -0.6831791842E-02
  0.8469889352E+00  0.1000000000E+01  0.0000000000E+00  0.3766212900E-02  0.8893579564E-19  0.5657616260E-02  0.6859857219E+15 -0.1537735916E-01  0.8198914793E-19  0.5992403829E-02
  0.8000000000E+00  0.1000000000E+01  0.0000000000E+00 -0.2902459676E-01  0.9221110163E-20 -0.9133909683E-02  0.6859857219E+15 -0.4727592973E-01 -0.2789325949E-20 -0.8421372700E-02
  0.1200000000E+01  0.1000000000E+01  0.4698893521E-01  0.1675420727E+01 -0.3957731726E-16 -0.1586127296E+00  0.6859857219E+15  0.1624271566E+01 -0.3729490207E-16 -0.1422026859E+00
  0.1153011065E+01  0.1000000000E+01  0.4698893521E-01  0.1032889034E+01 -0.1288472791E-16 -0.1358397134E-01  0.6859857219E+15  0.9768711948E+00 -0.1117680531E-16  0.2838753297E-02
  0.1057046303E+01  0.1000000000E+01  0.4698893521E-01  0.1155675864E+01  0.4465442232E-17 -0.6895566629E-01  0.6859857219E+15  0.1096095554E+01  0.3760525247E-17 -0.5165368701E-01
  0.9429536967E+00  0.1000000000E+01  0.4698893521E-01  0.7619880086E+00 -0.1519235749E-16 -0.7700624517E-01  0.6859857219E+15  0.7025638894E+00 -0.1353361848E-16 -0.5987176798E-01
  0.8469889352E+00  0.1000000000E+01  0.4698893521E-01  0.8205375506E+00 -0.3413402846E-16 -0.1170567721E+00  0.6859857219E+15  0.7653156625E+00 -0.3171070652E-16 -0.9750721819E-01
  0.8000000000E+00  0.1000000000E+01  0.4698893521E-01  0.3935901202E+00 -0.2537560383E-16 -0.4852117293E-01  0.6859857219E+15  0.3432974986E+00 -0.2480506504E-16 -0.2819965909E-01
  0.1200000000E+01  0.1000000000E+01  0.1429536967E+00  0.2666620899E+01 -0.5279689357E-16 -0.1754010414E+00  0.6859857219E+15  0.2626454157E+01 -0.5166829146E-16 -0.1362807144E+00
  0.1153011065E+01  0.1000000000E+01  0.1429536967E+00  0.1471095891E+01 -0.2747324894E-16 -0.4026791547E+00  0.6859857219E+15  0.1421304812E+01 -0.3083248014E-16 -0.3681256587E+00
  0.1057046303E+01  0.1000000000E+01  0.1429536967E+00  0.1652491659E+01 -0.6940438670E-17 -0.2196597446E+00  0.6859857219E+15  0.1600711400E+01 -0.6858016473E-17 -0.1950040254E+00
  0.9429536967E+00  0.1000000000E+01  0.1429536967E+00  0.9835279051E+00 -0.1737206172E-16 -0.3953391843E+00  0.6859857219E+15  0.9314256597E+00 -0.1736608242E-16 -0.3859555283E+00
  0.8469889352E+00  0.1000000000E+01  0.1429536967E+00  0.1085092658E+01 -0.3367565961E-16 -0.2433556999E+00  0.6859857219E+15  0.1035501237E+01 -0.3257446741E-16 -0.2460108911E+00
  0.8000000000E+00  0.1000000000E+01  0.1429536967E+00  0.4472235457E+00 -0.3621986634E-16 -0.3391080395E+00  0.6859857219E+15  0.4048815203E+00 -0.3754974536E-16 -0.3475290023E+00
  0.1200000000E+01  0.1000000000E+01  0.2570463033E+00  0.1371471354E+01 -0.3106558278E-16 -0.5245397132E+00  0.6859857219E+15  0.1341717366E+01 -0.3105410648E-16 -0.4875118763E+00
  0.1153011065E+01  0.1000000000E+01  0.2570463033E+00  0.1155944387E+01 -0.7479827512E-16 -0.7981733019E+00  0.6859857219E+15  0.1120297220E+01 -0.7017072990E-16 -0.7665070758E+00
  0.1057046303E+01  0.1000000000E+01  0.2570463033E+00  0.9670924294E+00 -0.2514839688E-16 -0.4774520016E+00  0.6859857219E+15  0.9308686165E+00 -0.2527340486E-16 -0.4554681167E+00
  0.9429536967E+00  0.1000000000E+01  0.2570463033E+00  0.6758805327E+00 -0.3218727256E-16 -0.6815736191E+00  0.6859857219E+15  0.6431576775E+00 -0.3031899679E-16 -0.6735391966E+00
  0.8469889352E+00  0.1000000000E+01  0.2570463033E+00  0.6261186390E+00  0.4547299821E-17 -0.4102265374E+00  0.6859857219E+15  0.5966346696E+00  0.3414080004E-17 -0.4168862153E+00
  0.8000000000E+00  0.1000000000E+01  0.2570463033E+00  0.4152439768E+00  0.4344655113E-17 -0.5182300922E+00  0.6859857219E+15  0.3878187867E+00  0.4286205814E-17 -0.5309963327E+00
  0.1200000000E+01  0.1000000000E+01  0.3530110648E+00  0.1091894780E+01 -0.1111281991E-16 -0.9857107010E+00  0.6859857219E+15  0.1068644502E+01 -0.1109202679E-16 -0.9573266465E+00
  0.1153011065E+01  0.1000000000E+01  0.3530110648E+00  0.7022268434E+00 -0.2175560100E-16 -0.9636670806E+00  0.6859857219E+15  0.6737016604E+00 -0.2134149990E-16 -0.9375687581E+00
  0.1057046303E+01  0.1000000000E+01  0.3530110648E+00  0.5709570180E+00 -0.9268799776E-17 -0.7324924487E+00  0.6859857219E+15  0.5395660317E+00 -0.9620051572E-17 -0.7097709426E+00
  0.9429536967E+00  0.1000000000E+01  0.3530110648E+00  0.2762198613E+00 -0.1840300026E-16 -0.7615724843E+00  0.6859857219E+15  0.2513653950E+00 -0.1770255832E-16 -0.7416799522E+00
  0.8469889352E+00  0.1000000000E+01  0.3530110648E+00  0.3124561450E+00  0.8809634632E-17 -0.5695331601E+00  0.6859857219E+15  0.2932864961E+00  0.8049447067E-17 -0.5539086063E+00
  0.8000000000E+00  0.1000000000E+01  0.3530110648E+00  0.9395454038E-01  0.1204327237E-16 -0.5842836809E+00  0.6859857219E+15  0.7310614109E-01  0.1207429513E-16 -0.5710312638E+00
  0.1200000000E+01  0.1000000000E+01  0.4000000000E+00  0.7010887695E+00 -0.1235543746E-16 -0.9983214917E+00  0.6859857219E+15  0.6792170564E+00 -0.1234835093E-16 -0.9623707831E+00
  0.1153011065E+01  0.1000000000E+01  0.4000000000E+00  0.6452697390E+00 -0.6536961539E-17 -0.1153609232E+01  0.6859857219E+15  0.6202149465E+00 -0.6987010193E-17 -0.1121914287E+01
  0.1057046303E+01  0.1000000000E+01  0.4000000000E+00  0.3669611839E+00 -0.4419954960E-17 -0.8267485720E+00  0.6859857219E+15  0.3379263326E+00 -0.4597198529E-17 -0.8056585837E+00
  0.9429536967E+00  0.1000000000E+01  0.4000000000E+00  0.1819332837E+00 -0.1934194999E-16 -0.8356357770E+00  0.6859857219E+15  0.1589843464E+00 -0.1864963210E-16 -0.8248444752E+00
  0.8469889352E+00  0.1000000000E+01  0.4000000000E+00  0.1143212895E+00 -0.8398796109E-17 -0.5764659760E+00  0.6859857219E+15  0.9846693468E-01 -0.8603071707E-17 -0.5732317620E+00
  0.8000000000E+00  0.1000000000E+01  0.4000000000E+00  0.9368154518E-01 -0.2438197044E-17 -0.6151056406E+00  0.6859857219E+15  0.7494322800E-01 -0.2444554117E-17 -0.6159106165E+00
ZONE I=6, J=6, K=1, F=POINT
  0.1600000000E+01  0.1000000000E+01  0.0000000000E+00  0.1305574949E+00 -0.6854487912E-18 -0.7053780735E-01  0.6859857219E+15  0.1297435946E+00 -0.7543764027E-18 -0.7184080440E-01
  0.1553011065E+01  0.1000000000E+01  0.0000000000E+00  0.4757268512E-02 -0.1268557611E-17  0.4580423447E-01  0.6859857219E+15  0.2386275902E-02 -0.1170059912E-17  0.4511010777E-01
  0.1457046303E+01  0.1000000000E+01  0.0000000000E+00 -0.1318101010E-01  0.2103730463E-18 -0.2157767889E-02  0.6859857219E+15 -0.2038887610E-01  0.3643379318E-18 -0.2839727929E-02
  0.1342953697E+01  0.1000000000E+01  0.0000000000E+00  0.9453795416E-03  0.3045784913E-18  0.2999884381E-01  0.6859857219E+15 -0.1156648942E-01 -0.3950108180E-18  0.2946744896E-01
  0.1246988935E+01  0.1000000000E+01  0.0000000000E+00 -0.1204451779E-01 -0.8707007753E-19 -0.6501648523E-02  0.6859857219E+15 -0.2790702078E-01 -0.1466269530E-18 -0.6885672483E-02
  0.1200000000E+01  0.1000000000E+01  0.0000000000E+00  0.5933171551E-01  0.1194828768E-18  0.3624131866E-01  0.6859857219E+15  0.4160648738E-01  0.1079164097E-18  0.3611031099E-01
  0.1600000000E+01  0.1000000000E+01  0.4698893521E-01  0.2071689395E+01 -0.5660775296E-16  0.2431736605E+00  0.6859857219E+15  0.2062568751E+01 -0.5649839066E-16  0.2633538095E+00
  0.1553011065E+01  0.1000000000E+01  0.4698893521E-01  0.2707832096E+01 -0.4302632845E-17 -0.2711460358E+00  0.6859857219E+15  0.2693738140E+01 -0.4892186837E-17 -0.2524791720E+00
  0.1457046303E+01  0.1000000000E+01  0.4698893521E-01  0.1752608359E+01 -0.1034152319E-16 -0.8530688375E-01  0.6859857219E+15  0.1725074917E+01 -0.9382125689E-17 -0.6227016144E-01
  0.1342953697E+01  0.1000000000E+01  0.4698893521E-01  0.1795722172E+01  0.2465542202E-16 -0.8236056680E-01  0.6859857219E+15  0.1756133375E+01  0.2434378769E-16 -0.6077848695E-01
  0.1246988935E+01  0.1000000000E+01  0.4698893521E-01  0.1225204263E+01  0.5951423682E-20  0.1973102846E-02  0.6859857219E+15  0.1175967118E+01 -0.2184561792E-17  0.1995088533E-01
  0.1200000000E+01  0.1000000000E+01  0.4698893521E-01  0.1795240777E+01 -0.4473686229E-16 -0.1643713867E+00  0.6859857219E+15  0.1741359352E+01 -0.4236056656E-16 -0.1476966268E+00
  0.1600000000E+01  0.1000000000E+01  0.1429536967E+00  0.1816581210E+01 -0.1954250749E-15 -0.1613805548E+01  0.6859857219E+15  0.1819506081E+01 -0.1954238600E-15 -0.1538896582E+01
  0.1553011065E+01  0.1000000000E+01  0.1429536967E+00  0.3860574119E+01 -0.1174028017E-15 -0.7360683547E+00  0.6859857219E+15  0.3852363299E+01 -0.1176815421E-15 -0.6654943023E+00
  0.1457046303E+01  0.1000000000E+01  0.1429536967E+00  0.2318094955E+01  0.4858335961E-16 -0.7943906833E+00  0.6859857219E+15  0.2294811843E+01  0.4677987999E-16 -0.7290322689E+00
  0.1342953697E+01  0.1000000000E+01  0.1429536967E+00  0.2746240250E+01  0.9088254011E-16 -0.1595937632E+00  0.6859857219E+15  0.2717085556E+01  0.8983995799E-16 -0.1009818954E+00
  0.1246988935E+01  0.1000000000E+01  0.1429536967E+00  0.1793003562E+01  0.3894506424E-17 -0.4208250953E+00  0.6859857219E+15  0.1754727947E+01  0.6998940846E-17 -0.3752220096E+00
  0.1200000000E+01  0.1000000000E+01  0.1429536967E+00  0.2841590524E+01 -0.5708861391E-16 -0.1710562865E+00  0.6859857219E+15  0.2796109236E+01 -0.5591456693E-16 -0.1322069960E+00
  0.1600000000E+01  0.1000000000E+01  0.2570463033E+00  0.3865370972E+01  0.8916937119E-17 -0.2640244695E+01  0.6859857219E+15  0.3885697743E+01  0.9016322882E-17 -0.2575718472E+01
  0.1553011065E+01  0.1000000000E+01  0.2570463033E+00  0.3200326045E+01  0.1971065409E-16 -0.1477909626E+01  0.6859857219E+15  0.3202485799E+01  0.2074207574E-16 -0.1412346768E+01
  0.1457046303E+01  0.1000000000E+01  0.2570463033E+00  0.2628513573E+01  0.1274401510E-15 -0.1500087558E+01  0.6859857219E+15  0.2614760248E+01  0.1264303327E-15 -0.1439963288E+01
  0.1342953697E+01  0.1000000000E+01  0.2570463033E+00  0.1976658841E+01  0.1056314533E-15 -0.5055972090E+00  0.6859857219E+15  0.1960306681E+01  0.1045701361E-15 -0.4528611331E+00
  0.1246988935E+01  0.1000000000E+01  0.2570463033E+00  0.1469535930E+01  0.2340391568E-16 -0.8679309350E+00  0.6859857219E+15  0.1447189754E+01  0.2269721366E-16 -0.8258099105E+00
  0.1200000000E+01  0.1000000000E+01  0.2570463033E+00  0.1419660319E+01 -0.3168816048E-16 -0.5190010700E+00  0.6859857219E+15  0.1390423424E+01 -0.3164144909E-16 -0.4826529710E+00
  0.1600000000E+01  0.1000000000E+01  0.3530110648E+00  0.2145900059E+01  0.2619834647E-16 -0.2624977069E+01  0.6859857219E+15  0.2164188442E+01  0.2626384267E-16 -0.2592081340E+01
  0.1553011065E+01  0.1000000000E+01  0.3530110648E+00  0.2498460878E+01  0.3816112878E-16 -0.2317771974E+01  0.6859857219E+15  0.2499107165E+01  0.3825574122E-16 -0.2284818394E+01
  0.1457046303E+01  0.1000000000E+01  0.3530110648E+00  0.1924482468E+01  0.8551318467E-16 -0.1866258221E+01  0.6859857219E+15  0.1913764392E+01  0.8413559751E-16 -0.1831957150E+01
  0.1342953697E+01  0.1000000000E+01  0.3530110648E+00  0.1601615978E+01  0.8099422596E-16 -0.1182043696E+01  0.6859857219E+15  0.1590940765E+01  0.8037820741E-16 -0.1149611387E+01
  0.1246988935E+01  0.1000000000E+01  0.3530110648E+00  0.9629511749E+00  0.1381073275E-16 -0.1101185456E+01  0.6859857219E+15  0.9454021741E+00  0.1422881170E-16 -0.1071698430E+01
  0.1200000000E+01  0.1000000000E+01  0.3530110648E+00  0.1167520484E+01 -0.1118409589E-16 -0.9866287967E+00  0.6859857219E+15  0.1143759284E+01 -0.1116278762E-16 -0.9579891211E+00
  0.1600000000E+01  0.1000000000E+01  0.4000000000E+00  0.2542414676E+01  0.4396922097E-17 -0.3319238128E+01  0.6859857219E+15  0.2560613147E+01  0.4415466442E-17 -0.3272472903E+01
  0.1553011065E+01  0.1000000000E+01  0.4000000000E+00  0.1985955128E+01  0.3106077643E-16 -0.2191519568E+01  0.6859857219E+15  0.1986953579E+01  0.3119715368E-16 -0.2146295573E+01
  0.1457046303E+01  0.1000000000E+01  0.4000000000E+00  0.1841455354E+01  0.4013193229E-16 -0.2098539862E+01  0.6859857219E+15  0.1830557924E+01  0.4054683811E-16 -0.2056908243E+01
  0.1342953697E+01  0.1000000000E+01  0.4000000000E+00  0.1287930194E+01  0.7084422081E-16 -0.1237426736E+01  0.6859857219E+15  0.1278470803E+01  0.7069790987E-16 -0.1196277484E+01
  0.1246988935E+01  0.1000000000E+01  0.4000000000E+00  0.9662689117E+00  0.6096056829E-17 -0.1336933700E+01  0.6859857219E+15  0.9496324884E+00  0.6199925136E-17 -0.1299021268E+01
  0.1200000000E+01  0.1000000000E+01  0.4000000000E+00  0.6803927709E+00 -0.1212851676E-16 -0.9904418986E+00  0.6859857219E+15  0.6583522751E+00 -0.1213047398E-16 -0.9549443809E+00
ZONE I=6, J=6, K=1, F=POINT
  0.2000000000E+01  0.1000000000E+01  0.0000000000E+00  0.2388638345E+01  0.2755313605E-19  0.2122157892E+02  0.6859857219E+15  0.2418101625E+01  0.7611069652E-19  0.2214565894E+02
  0.1953011065E+01  0.1000000000E+01  0.0000000000E+00  0.1293668815E+01 -0.3490419203E-16 -0.1500033669E+00  0.6859857219E+15  0.1317534269E+01 -0.3490030400E-16 -0.1601675478E+00
  0.1857046303E+01  0.1000000000E+01  0.0000000000E+00 -0.3079142519E+00 -0.1913521321E-16  0.1616558716E+00  0.6859857219E+15 -0.2916854862E+00 -0.1882674005E-16  0.1549620959E+00
  0.1742953697E+01  0.1000000000E+01  0.0000000000E+00  0.1283537459E+00  0.3506844383E-18 -0.3819425738E-01  0.6859857219E+15  0.1363519468E+00  0.3561225317E-18 -0.3806283316E-01
  0.1646988935E+01  0.1000000000E+01  0.0000000000E+00 -0.1297478682E+00  0.9306545331E-18  0.6122541957E-01  0.6859857219E+15 -0.1245286886E+00  0.9208675835E-18  0.5935016849E-01
  0.1600000000E+01  0.1000000000E+01  0.0000000000E+00  0.7000658419E-01 -0.7733050571E-18 -0.8177710497E-01  0.6859857219E+15  0.6892434182E-01 -0.8467928193E-18 -0.8175343756E-01
  0.2000000000E+01  0.1000000000E+01  0.4698893521E-01 -0.4198862891E-01  0.9996450919E-18  0.4847900811E+02  0.6859857219E+15 -0.8366357053E-01  0.8463137008E-18  0.4867612331E+02
  0.1953011065E+01  0.1000000000E+01  0.4698893521E-01  0.1066007853E+02  0.1761394237E-15  0.1235537586E+01  0.6859857219E+15  0.1070328677E+02  0.1758703575E-15  0.1307329628E+01
  0.1857046303E+01  0.1000000000E+01  0.4698893521E-01  0.1024099985E+02  0.3956040541E-15 -0.2126705071E+01  0.6859857219E+15  0.1029967549E+02  0.3991612045E-15 -0.2073476512E+01
  0.1742953697E+01  0.1000000000E+01  0.4698893521E-01  0.4246194263E+01  0.2186055058E-16 -0.4779570673E+00  0.6859857219E+15  0.4272031345E+01  0.2213246637E-16 -0.4480126873E+00
  0.1646988935E+01  0.1000000000E+01  0.4698893521E-01  0.3574537114E+01 -0.1095781456E-15 -0.5637106507E+00  0.6859857219E+15  0.3586621740E+01 -0.1103172523E-15 -0.5383875168E+00
  0.1600000000E+01  0.1000000000E+01  0.4698893521E-01  0.1872129824E+01 -0.5259723308E-16  0.2292166258E+00  0.6859857219E+15  0.1870415523E+01 -0.5229798309E-16  0.2445625666E+00
  0.2000000000E+01  0.1000000000E+01  0.1429536967E+00 -0.2826835600E+00  0.6646076691E-18  0.5049258978E+02  0.6859857219E+15 -0.2701930001E+00  0.3832748856E-18  0.5045761274E+02
  0.1953011065E+01  0.1000000000E+01  0.1429536967E+00  0.1880787380E+01 -0.2684181381E-15  0.1412021727E+02  0.6859857219E+15  0.1911733452E+01 -0.2662088688E-15  0.1422016295E+02
  0.1857046303E+01  0.1000000000E+01  0.1429536967E+00  0.8510786075E+01 -0.2584723603E-15 -0.5678709977E+01  0.6859857219E+15  0.8575491545E+01 -0.2615644286E-15 -0.5591372310E+01
  0.1742953697E+01  0.1000000000E+01  0.1429536967E+00  0.4598514099E+01  0.1167177593E-15 -0.3409760095E+01  0.6859857219E+15  0.4641664492E+01  0.1194754892E-15 -0.3344249412E+01
  0.1646988935E+01  0.1000000000E+01  0.1429536967E+00  0.4625298184E+01 -0.4184318828E-16 -0.1632677269E+01  0.6859857219E+15  0.4644467418E+01 -0.4220444370E-16 -0.1557246376E+01
  0.1600000000E+01  0.1000000000E+01  0.1429536967E+00  0.1446186538E+01 -0.2129978043E-15 -0.1605829744E+01  0.6859857219E+15  0.1468849153E+01 -0.2133699446E-15 -0.1538191360E+01
  0.2000000000E+01  0.1000000000E+01  0.2570463033E+00  0.1062812186E-01  0.6830625169E-18  0.4986826341E+02  0.6859857219E+15  0.9423717185E-02  0.6561808748E-18  0.4989134467E+02