TITLE = "Points"
VARIABLES = "x","y","z"
ZONE I=9950,J=2,K=1, DATAPACKING=POINT
 -0.12489E+01 -0.84280E+00  0.69432E-01
 -0.12489E+01 -0.84280E+00  0.33001E+00
 -0.12489E+01 -0.84280E+00  0.66999E+00
 -0.12489E+01 -0.84280E+00  0.93057E+00
 -0.11634E+01 -0.83686E+00  0.69432E-01
 -0.11634E+01 -0.83686E+00  0.33001E+00
 -0.11634E+01 -0.83686E+00  0.66999E+00
 -0.11634E+01 -0.83686E+00  0.93057E+00
 -0.11178E+01 -0.83528E+00  0.69432E-01
 -0.11178E+01 -0.83528E+00  0.33001E+00
 -0.11178E+01 -0.83528E+00  0.66999E+00
 -0.11178E+01 -0.83528E+00  0.93057E+00
 -0.10323E+01 -0.92078E+00  0.69432E-01
 -0.10323E+01 -0.92078E+00  0.33001E+00
 -0.10323E+01 -0.92078E+00  0.66999E+00
 -0.10323E+01 -0.92078E+00  0.93057E+00
 -0.10323E+01 -0.83528E+00  0.69432E-01
 -0.10323E+01 -0.83528E+00  0.33001E+00
 -0.10323E+01 -0.83528E+00  0.66999E+00
 -0.10323E+01 -0.83528E+00  0.93057E+00
 -0.92078E+00 -0.92078E+00  0.69432E-01
 -0.92078E+00 -0.92078E+00  0.33001E+00
 -0.92078E+00 -0.92078E+00  0.66999E+00
 -0.92078E+00 -0.92078E+00  0.93057E+00
 -0.92078E+00 -0.83528E+00  0.69432E-01
 -0.92078E+00 -0.83528E+00  0.33001E+00
 -0.92078E+00 -0.83528E+00  0.66999E+00
 -0.92078E+00 -0.83528E+00  0.93057E+00
 -0.83528E+00 -0.92078E+00  0.69432E-01
 -0.83528E+00 -0.92078E+00  0.33001E+00
 -0.83528E+00 -0.92078E+00  0.66999E+00
 -0.83528E+00 -0.92078E+00  0.93057E+00
 -0.83528E+00 -0.83528E+00  0.69432E-01
 -0.83528E+00 -0.83528E+00  0.33001E+00
 -0.83528E+00 -0.83528E+00  0.66999E+00
 -0.83528E+00 -0.83528E+00  0.93057E+00
 -0.78972E+00 -0.92078E+00  0.69432E-01
 -0.78972E+00 -0.92078E+00  0.33001E+00
 -0.78972E+00 -0.92078E+00  0.66999E+00
 -0.78972E+00 -0.92078E+00  0.93057E+00
 -0.78972E+00 -0.83528E+00  0.69432E-01
 -0.78972E+00 -0.83528E+00  0.33001E+00
 -0.78972E+00 -0.83528E+00  0.66999E+00
 -0.78972E+00 -0.83528E+00  0.93057E+00
 -0.70422E+00 -0.92078E+00  0.69432E-01
 -0.70422E+00 -0.92078E+00  0.33001E+00
 -0.70422E+00 -0.92078E+00  0.66999E+00
 -0.70422E+00 -0.92078E+00  0.93057E+00
 -0.70422E+00 -0.83528E+00  0.69432E-01
 -0.70422E+00 -0.83528E+00  0.33001E+00
 -0.70422E+00 -0.83528E+00  0.66999E+00
 -0.70422E+00 -0.83528E+00  0.93057E+00
 -0.59266E+00 -0.10323E+01  0.69432E-01
 -0.59266E+00 -0.10323E+01  0.33001E+00
 -0.59266E+00 -0.10323E+01  0.66999E+00
 -0.59266E+00 -0.10323E+01  0.93057E+00
 -0.59266E+00 -0.92078E+00  0.69432E-01
 -0.59266E+00 -0.92078E+00  0.33001E+00
 -0.59266E+00 -0.92078E+00  0.66999E+00
 -0.59266E+00 -0.92078E+00  0.93057E+00
 -0.59266E+00 -0.83528E+00  0.69432E-01
 -0.59266E+00 -0.83528E+00  0.33001E+00
 -0.59266E+00 -0.83528E+00  0.66999E+00
 -0.59266E+00 -0.83528E+00  0.93057E+00
 -0.50716E+00 -0.10323E+01  0.69432E-01
 -0.50716E+00 -0.10323E+01  0.33001E+00
 -0.50716E+00 -0.10323E+01  0.66999E+00
 -0.50716E+00 -0.10323E+01  0.93057E+00
 -0.50716E+00 -0.92078E+00  0.69432E-01
 -0.50716E+00 -0.92078E+00  0.33001E+00
 -0.50716E+00 -0.92078E+00  0.66999E+00
 -0.50716E+00 -0.92078E+00  0.93057E+00
 -0.50716E+00 -0.83528E+00  0.69432E-01
 -0.50716E+00 -0.83528E+00  0.33001E+00
 -0.50716E+00 -0.83528E+00  0.66999E+00
 -0.50716E+00 -0.83528E+00  0.93057E+00
 -0.46159E+00 -0.10476E+01  0.69432E-01
 -0.46159E+00 -0.10476E+01  0.33001E+00
 -0.46159E+00 -0.10476E+01  0.66999E+00
 -0.46159E+00 -0.10476E+01  0.93057E+00
 -0.46159E+00 -0.92830E+00  0.69432E-01
 -0.46159E+00 -0.92830E+00  0.33001E+00
 -0.46159E+00 -0.92830E+00  0.66999E+00
 -0.46159E+00 -0.92830E+00  0.93057E+00
 -0.46159E+00 -0.83686E+00  0.69432E-01
 -0.46159E+00 -0.83686E+00  0.33001E+00
 -0.46159E+00 -0.83686E+00  0.66999E+00
 -0.46159E+00 -0.83686E+00  0.93057E+00
 -0.37609E+00 -0.95652E+00  0.69432E-01
 -0.37609E+00 -0.95652E+00  0.33001E+00
 -0.37609E+00 -0.95652E+00  0.66999E+00
 -0.37609E+00 -0.95652E+00  0.93057E+00
 -0.37609E+00 -0.84280E+00  0.69432E-01
 -0.37609E+00 -0.84280E+00  0.33001E+00
 -0.37609E+00 -0.84280E+00  0.66999E+00
 -0.37609E+00 -0.84280E+00  0.93057E+00
 -0.26453E+00 -0.99333E+00  0.69432E-01
 -0.26453E+00 -0.99333E+00  0.33001E+00
 -0.26453E+00 -0.99333E+00  0.66999E+00
 -0.26453E+00 -0.99333E+00  0.93057E+00
 -0.26453E+00 -0.85055E+00  0.69432E-01
 -0.26453E+00 -0.85055E+00  0.33001E+00
 -0.26453E+00 -0.85055E+00  0.66999E+00
 -0.26453E+00 -0.85055E+00  0.93057E+00
 -0.17903E+00 -0.10216E+01  0.69432E-01
 -0.17903E+00 -0.10216E+01  0.33001E+00
 -0.17903E+00 -0.10216E+01  0.66999E+00
 -0.17903E+00 -0.10216E+01  0.93057E+00
 -0.17903E+00 -0.85648E+00  0.69432E-01
 -0.17903E+00 -0.85648E+00  0.33001E+00
 -0.17903E+00 -0.85648E+00  0.66999E+00
 -0.17903E+00 -0.85648E+00  0.93057E+00
  0.17346E+00 -0.11634E+01  0.69432E-01
  0.17346E+00 -0.11634E+01  0.33001E+00
  0.17346E+00 -0.11634E+01  0.66999E+00
  0.17346E+00 -0.11634E+01  0.93057E+00
  0.20761E+00 -0.12489E+01  0.69432E-01
  0.20761E+00 -0.12489E+01  0.33001E+00
  0.20761E+00 -0.12489E+01  0.66999E+00
  0.20761E+00 -0.12489E+01  0.93057E+00
  0.26490E+00 -0.11634E+01  0.69432E-01
  0.26490E+00 -0.11634E+01  0.33001E+00
  0.26490E+00 -0.11634E+01  0.66999E+00
  0.26490E+00 -0.11634E+01  0.93057E+00
  0.35598E+00 -0.12489E+01  0.69432E-01
  0.35598E+00 -0.12489E+01  0.33001E+00
  0.35598E+00 -0.12489E+01  0.66999E+00
  0.35598E+00 -0.12489E+01  0.93057E+00
  0.38420E+00 -0.11634E+01  0.69432E-01
  0.38420E+00 -0.11634E+01  0.33001E+00
  0.38420E+00 -0.11634E+01  0.66999E+00
  0.38420E+00 -0.11634E+01  0.93057E+00
  0.46970E+00 -0.12489E+01  0.69432E-01
  0.46970E+00 -0.12489E+01  0.33001E+00
  0.46970E+00 -0.12489E+01  0.66999E+00
  0.46970E+00 -0.12489E+01  0.93057E+00
  0.47564E+00 -0.11634E+01  0.69432E-01
  0.47564E+00 -0.11634E+01  0.33001E+00
  0.47564E+00 -0.11634E+01  0.66999E+00
  0.47564E+00 -0.11634E+01  0.93057E+00
 -0.13347E+00 -0.10216E+01  0.69432E-01
 -0.13347E+00 -0.10216E+01  0.33001E+00
 -0.13347E+00 -0.10216E+01  0.66999E+00
 -0.13347E+00 -0.10216E+01  0.93057E+00
 -0.13347E+00 -0.85648E+00  0.69432E-01
 -0.13347E+00 -0.85648E+00  0.33001E+00
 -0.13347E+00 -0.85648E+00  0.66999E+00
 -0.13347E+00 -0.85648E+00  0.93057E+00
 -0.47966E-01 -0.11796E+01  0.69432E-01
 -0.47966E-01 -0.11796E+01  0.33001E+00
 -0.47966E-01 -0.11796E+01  0.66999E+00
 -0.47966E-01 -0.11796E+01  0.93057E+00
 -0.47966E-01 -0.99333E+00  0.69432E-01
 -0.47966E-01 -0.99333E+00  0.33001E+00
 -0.47966E-01 -0.99333E+00  0.66999E+00
 -0.47966E-01 -0.99333E+00  0.93057E+00
 -0.47966E-01 -0.85055E+00  0.69432E-01
 -0.47966E-01 -0.85055E+00  0.33001E+00
 -0.47966E-01 -0.85055E+00  0.66999E+00
 -0.47966E-01 -0.85055E+00  0.93057E+00
  0.63591E-01 -0.12186E+01  0.69432E-01
  0.63591E-01 -0.11049E+01  0.69432E-01
  0.63591E-01 -0.11049E+01  0.33001E+00
  0.63591E-01 -0.11049E+01  0.66999E+00
  0.63591E-01 -0.11049E+01  0.93057E+00
  0.63591E-01 -0.95652E+00  0.69432E-01
  0.63591E-01 -0.95652E+00  0.33001E+00
  0.63591E-01 -0.95652E+00  0.66999E+00
  0.63591E-01 -0.95652E+00  0.93057E+00
  0.63591E-01 -0.84280E+00  0.69432E-01
  0.63591E-01 -0.84280E+00  0.33001E+00
  0.63591E-01 -0.84280E+00  0.66999E+00
  0.63591E-01 -0.84280E+00  0.93057E+00
  0.14909E+00 -0.11390E+01  0.69432E-01
  0.14909E+00 -0.11390E+01  0.33001E+00
  0.14909E+00 -0.11390E+01  0.66999E+00
  0.14909E+00 -0.11390E+01  0.93057E+00
  0.14909E+00 -0.10476E+01  0.69432E-01
  0.14909E+00 -0.10476E+01  0.33001E+00
  0.14909E+00 -0.10476E+01  0.66999E+00
  0.14909E+00 -0.10476E+01  0.93057E+00
  0.14909E+00 -0.92830E+00  0.69432E-01
  0.14909E+00 -0.92830E+00  0.33001E+00
  0.14909E+00 -0.92830E+00  0.66999E+00
  0.14909E+00 -0.92830E+00  0.93057E+00
  0.14909E+00 -0.83686E+00  0.69432E-01
  0.14909E+00 -0.83686E+00  0.33001E+00
  0.14909E+00 -0.83686E+00  0.66999E+00
  0.14909E+00 -0.83686E+00  0.93057E+00
  0.19466E+00 -0.11178E+01  0.69432E-01
  0.19466E+00 -0.11178E+01  0.33001E+00
  0.19466E+00 -0.11178E+01  0.66999E+00
  0.19466E+00 -0.11178E+01  0.93057E+00
  0.19466E+00 -0.10323E+01  0.69432E-01
  0.19466E+00 -0.10323E+01  0.33001E+00
  0.19466E+00 -0.10323E+01  0.66999E+00
  0.19466E+00 -0.10323E+01  0.93057E+00
  0.19466E+00 -0.92078E+00  0.69432E-01
  0.19466E+00 -0.92078E+00  0.33001E+00
  0.19466E+00 -0.92078E+00  0.66999E+00
  0.19466E+00 -0.92078E+00  0.93057E+00
  0.19466E+00 -0.83528E+00  0.69432E-01
  0.19466E+00 -0.83528E+00  0.33001E+00
  0.19466E+00 -0.83528E+00  0.66999E+00
  0.19466E+00 -0.83528E+00  0.93057E+00
  0.28016E+00 -0.11178E+01  0.69432E-01
  0.28016E+00 -0.11178E+01  0.33001E+00
  0.28016E+00 -0.11178E+01  0.66999E+00
  0.28016E+00 -0.11178E+01  0.93057E+00
  0.28016E+00 -0.10323E+01  0.69432E-01
  0.28016E+00 -0.10323E+01  0.33001E+00
  0.28016E+00 -0.10323E+01  0.66999E+00
  0.28016E+00 -0.10323E+01  0.93057E+00
  0.28016E+00 -0.92078E+00  0.69432E-01
  0.28016E+00 -0.92078E+00  0.33001E+00
  0.28016E+00 -0.92078E+00  0.66999E+00
  0.28016E+00 -0.92078E+00  0.93057E+00
  0.28016E+00 -0.83528E+00  0.69432E-01
  0.28016E+00 -0.83528E+00  0.33001E+00
  0.28016E+00 -0.83528E+00  0.66999E+00
  0.28016E+00 -0.83528E+00  0.93057E+00
  0.39172E+00 -0.11178E+01  0.69432E-01
  0.39172E+00 -0.11178E+01  0.33001E+00
  0.39172E+00 -0.11178E+01  0.66999E+00
  0.39172E+00 -0.11178E+01  0.93057E+00
  0.39172E+00 -0.10323E+01  0.69432E-01
  0.39172E+00 -0.10323E+01  0.33001E+00
  0.39172E+00 -0.10323E+01  0.66999E+00
  0.39172E+00 -0.10323E+01  0.93057E+00
  0.39172E+00 -0.92078E+00  0.69432E-01
  0.39172E+00 -0.92078E+00  0.33001E+00
  0.39172E+00 -0.92078E+00  0.66999E+00
  0.39172E+00 -0.92078E+00  0.93057E+00
  0.39172E+00 -0.83528E+00  0.69432E-01
  0.39172E+00 -0.83528E+00  0.33001E+00
  0.39172E+00 -0.83528E+00  0.66999E+00
  0.39172E+00 -0.83528E+00  0.93057E+00
  0.47722E+00 -0.11178E+01  0.69432E-01
  0.47722E+00 -0.11178E+01  0.33001E+00
  0.47722E+00 -0.11178E+01  0.66999E+00
  0.47722E+00 -0.11178E+01  0.93057E+00
  0.47722E+00 -0.10323E+01  0.69432E-01
  0.47722E+00 -0.10323E+01  0.33001E+00
  0.47722E+00 -0.10323E+01  0.66999E+00
  0.47722E+00 -0.10323E+01  0.93057E+00
  0.47722E+00 -0.92078E+00  0.69432E-01
  0.47722E+00 -0.92078E+00  0.33001E+00
  0.47722E+00 -0.92078E+00  0.66999E+00
  0.47722E+00 -0.92078E+00  0.93057E+00
  0.47722E+00 -0.83528E+00  0.69432E-01
  0.47722E+00 -0.83528E+00  0.33001E+00
  0.47722E+00 -0.83528E+00  0.66999E+00
  0.47722E+00 -0.83528E+00  0.93057E+00
 -0.15143E+01 -0.76694E+00  0.69432E-01
 -0.15143E+01 -0.76694E+00  0.33001E+00
 -0.15143E+01 -0.76694E+00  0.66999E+00
 -0.15143E+01 -0.76694E+00  0.93057E+00
 -0.15143E+01 -0.59593E+00  0.69432E-01
 -0.15143E+01 -0.59593E+00  0.33001E+00
 -0.15143E+01 -0.59593E+00  0.66999E+00
 -0.15143E+01 -0.59593E+00  0.93057E+00
 -0.15143E+01 -0.37282E+00  0.69432E-01
 -0.15143E+01 -0.37282E+00  0.33001E+00
 -0.15143E+01 -0.37282E+00  0.66999E+00
 -0.15143E+01 -0.37282E+00  0.93057E+00
 -0.14460E+01 -0.76852E+00  0.69432E-01
 -0.14460E+01 -0.76852E+00  0.33001E+00
 -0.14460E+01 -0.76852E+00  0.66999E+00
 -0.14460E+01 -0.76852E+00  0.93057E+00
 -0.14460E+01 -0.60345E+00  0.69432E-01
 -0.14460E+01 -0.60345E+00  0.33001E+00
 -0.14460E+01 -0.60345E+00  0.66999E+00
 -0.14460E+01 -0.60345E+00  0.93057E+00
 -0.14460E+01 -0.38808E+00  0.69432E-01
 -0.14460E+01 -0.38808E+00  0.33001E+00
 -0.14460E+01 -0.38808E+00  0.66999E+00
 -0.14460E+01 -0.38808E+00  0.93057E+00
 -0.14460E+01 -0.22302E+00  0.69432E-01
 -0.14460E+01 -0.22302E+00  0.33001E+00
 -0.14460E+01 -0.22302E+00  0.66999E+00
 -0.14460E+01 -0.22302E+00  0.93057E+00
 -0.13605E+01 -0.77445E+00  0.69432E-01
 -0.13605E+01 -0.77445E+00  0.33001E+00
 -0.13605E+01 -0.77445E+00  0.66999E+00
 -0.13605E+01 -0.77445E+00  0.93057E+00
 -0.13605E+01 -0.63167E+00  0.69432E-01
 -0.13605E+01 -0.63167E+00  0.33001E+00
 -0.13605E+01 -0.63167E+00  0.66999E+00
 -0.13605E+01 -0.63167E+00  0.93057E+00
 -0.13605E+01 -0.44537E+00  0.69432E-01
 -0.13605E+01 -0.44537E+00  0.33001E+00
 -0.13605E+01 -0.44537E+00  0.66999E+00
 -0.13605E+01 -0.44537E+00  0.93057E+00
 -0.13605E+01 -0.30258E+00  0.69432E-01
 -0.13605E+01 -0.30258E+00  0.33001E+00
 -0.13605E+01 -0.30258E+00  0.66999E+00
 -0.13605E+01 -0.30258E+00  0.93057E+00
 -0.12489E+01 -0.78220E+00  0.69432E-01
 -0.12489E+01 -0.78220E+00  0.33001E+00
 -0.12489E+01 -0.78220E+00  0.66999E+00
 -0.12489E+01 -0.78220E+00  0.93057E+00
 -0.12489E+01 -0.66848E+00  0.69432E-01
 -0.12489E+01 -0.66848E+00  0.33001E+00
 -0.12489E+01 -0.66848E+00  0.66999E+00
 -0.12489E+01 -0.66848E+00  0.93057E+00
 -0.12489E+01 -0.52011E+00  0.69432E-01
 -0.12489E+01 -0.52011E+00  0.33001E+00
 -0.12489E+01 -0.52011E+00  0.66999E+00
 -0.12489E+01 -0.52011E+00  0.93057E+00
 -0.12489E+01 -0.40639E+00  0.69432E-01
 -0.12489E+01 -0.40639E+00  0.33001E+00
 -0.12489E+01 -0.40639E+00  0.66999E+00
 -0.12489E+01 -0.40639E+00  0.93057E+00
 -0.11634E+01 -0.78814E+00  0.69432E-01
 -0.11634E+01 -0.78814E+00  0.33001E+00
 -0.11634E+01 -0.78814E+00  0.66999E+00
 -0.11634E+01 -0.78814E+00  0.93057E+00
 -0.11634E+01 -0.69670E+00  0.69432E-01
 -0.11634E+01 -0.69670E+00  0.33001E+00
 -0.11634E+01 -0.69670E+00  0.66999E+00
 -0.11634E+01 -0.69670E+00  0.93057E+00
 -0.11634E+01 -0.57740E+00  0.69432E-01
 -0.11634E+01 -0.57740E+00  0.33001E+00
 -0.11634E+01 -0.57740E+00  0.66999E+00
 -0.11634E+01 -0.57740E+00  0.93057E+00
 -0.11634E+01 -0.48596E+00  0.69432E-01
 -0.11634E+01 -0.48596E+00  0.33001E+00
 -0.11634E+01 -0.48596E+00  0.66999E+00
 -0.11634E+01 -0.48596E+00  0.93057E+00
 -0.11178E+01 -0.78972E+00  0.69432E-01
 -0.11178E+01 -0.78972E+00  0.33001E+00
 -0.11178E+01 -0.78972E+00  0.66999E+00
 -0.11178E+01 -0.78972E+00  0.93057E+00
 -0.11178E+01 -0.70422E+00  0.69432E-01
 -0.11178E+01 -0.70422E+00  0.33001E+00
 -0.11178E+01 -0.70422E+00  0.66999E+00
 -0.11178E+01 -0.70422E+00  0.93057E+00
 -0.11178E+01 -0.59266E+00  0.69432E-01
 -0.11178E+01 -0.59266E+00  0.33001E+00
 -0.11178E+01 -0.59266E+00  0.66999E+00
 -0.11178E+01 -0.59266E+00  0.93057E+00
 -0.11178E+01 -0.50716E+00  0.69432E-01
 -0.11178E+01 -0.50716E+00  0.33001E+00
 -0.11178E+01 -0.50716E+00  0.66999E+00
 -0.11178E+01 -0.50716E+00  0.93057E+00
 -0.10323E+01 -0.78972E+00  0.69432E-01
 -0.10323E+01 -0.78972E+00  0.33001E+00
 -0.10323E+01 -0.78972E+00  0.66999E+00
 -0.10323E+01 -0.78972E+00  0.93057E+00
 -0.10323E+01 -0.70422E+00  0.69432E-01
 -0.10323E+01 -0.70422E+00  0.33001E+00
 -0.10323E+01 -0.70422E+00  0.66999E+00
 -0.10323E+01 -0.70422E+00  0.93057E+00
 -0.10323E+01 -0.59266E+00  0.69432E-01
 -0.10323E+01 -0.59266E+00  0.33001E+00
 -0.10323E+01 -0.59266E+00  0.66999E+00
 -0.10323E+01 -0.59266E+00  0.93057E+00
 -0.10323E+01 -0.50716E+00  0.69432E-01
 -0.10323E+01 -0.50716E+00  0.33001E+00
 -0.10323E+01 -0.50716E+00  0.66999E+00
 -0.10323E+01 -0.50716E+00  0.93057E+00
 -0.92078E+00 -0.78972E+00  0.69432E-01
 -0.92078E+00 -0.78972E+00  0.33001E+00
 -0.92078E+00 -0.78972E+00  0.66999E+00
 -0.92078E+00 -0.78972E+00  0.93057E+00
 -0.92078E+00 -0.70422E+00  0.69432E-01
 -0.92078E+00 -0.70422E+00  0.33001E+00
 -0.92078E+00 -0.70422E+00  0.66999E+00
 -0.92078E+00 -0.70422E+00  0.93057E+00
 -0.92078E+00 -0.59266E+00  0.69432E-01
 -0.92078E+00 -0.59266E+00  0.33001E+00
 -0.92078E+00 -0.59266E+00  0.66999E+00
 -0.92078E+00 -0.59266E+00  0.93057E+00
 -0.92078E+00 -0.50716E+00  0.69432E-01
 -0.92078E+00 -0.50716E+00  0.33001E+00
 -0.92078E+00 -0.50716E+00  0.66999E+00
 -0.92078E+00 -0.50716E+00  0.93057E+00
 -0.83528E+00 -0.78972E+00  0.69432E-01
 -0.83528E+00 -0.78972E+00  0.33001E+00
 -0.83528E+00 -0.78972E+00  0.66999E+00
 -0.83528E+00 -0.78972E+00  0.93057E+00
 -0.83528E+00 -0.70422E+00  0.69432E-01
 -0.83528E+00 -0.70422E+00  0.33001E+00
 -0.83528E+00 -0.70422E+00  0.66999E+00
 -0.83528E+00 -0.70422E+00  0.93057E+00
 -0.83528E+00 -0.59266E+00  0.69432E-01
 -0.83528E+00 -0.59266E+00  0.33001E+00
 -0.83528E+00 -0.59266E+00  0.66999E+00
 -0.83528E+00 -0.59266E+00  0.93057E+00
 -0.83528E+00 -0.50716E+00  0.69432E-01
 -0.83528E+00 -0.50716E+00  0.33001E+00
 -0.83528E+00 -0.50716E+00  0.66999E+00
 -0.83528E+00 -0.50716E+00  0.93057E+00
 -0.11390E+01 -0.46159E+00  0.69432E-01
 -0.11390E+01 -0.46159E+00  0.33001E+00
 -0.11390E+01 -0.46159E+00  0.66999E+00
 -0.11390E+01 -0.46159E+00  0.93057E+00
 -0.12186E+01 -0.37609E+00  0.69432E-01
 -0.12186E+01 -0.37609E+00  0.33001E+00
 -0.12186E+01 -0.37609E+00  0.66999E+00
 -0.12186E+01 -0.37609E+00  0.93057E+00
 -0.13224E+01 -0.26453E+00  0.69432E-01
 -0.13224E+01 -0.26453E+00  0.33001E+00
 -0.13224E+01 -0.26453E+00  0.66999E+00
 -0.13224E+01 -0.26453E+00  0.93057E+00
 -0.14020E+01 -0.17903E+00  0.69432E-01
 -0.14020E+01 -0.17903E+00  0.33001E+00
 -0.14020E+01 -0.17903E+00  0.66999E+00
 -0.14020E+01 -0.17903E+00  0.93057E+00
 -0.10476E+01 -0.46159E+00  0.69432E-01
 -0.10476E+01 -0.46159E+00  0.33001E+00
 -0.10476E+01 -0.46159E+00  0.66999E+00
 -0.10476E+01 -0.46159E+00  0.93057E+00
 -0.11049E+01 -0.37609E+00  0.69432E-01
 -0.11049E+01 -0.37609E+00  0.33001E+00
 -0.11049E+01 -0.37609E+00  0.66999E+00
 -0.11049E+01 -0.37609E+00  0.93057E+00
 -0.11796E+01 -0.26453E+00  0.69432E-01
 -0.11796E+01 -0.26453E+00  0.33001E+00
 -0.11796E+01 -0.26453E+00  0.66999E+00
 -0.11796E+01 -0.26453E+00  0.93057E+00
 -0.12369E+01 -0.17903E+00  0.69432E-01
 -0.12369E+01 -0.17903E+00  0.33001E+00
 -0.12369E+01 -0.17903E+00  0.66999E+00
 -0.12369E+01 -0.17903E+00  0.93057E+00
 -0.92830E+00 -0.46159E+00  0.69432E-01
 -0.92830E+00 -0.46159E+00  0.33001E+00
 -0.92830E+00 -0.46159E+00  0.66999E+00
 -0.92830E+00 -0.46159E+00  0.93057E+00
 -0.95652E+00 -0.37609E+00  0.69432E-01
 -0.95652E+00 -0.37609E+00  0.33001E+00
 -0.95652E+00 -0.37609E+00  0.66999E+00
 -0.95652E+00 -0.37609E+00  0.93057E+00
 -0.99333E+00 -0.26453E+00  0.69432E-01
 -0.99333E+00 -0.26453E+00  0.33001E+00
 -0.99333E+00 -0.26453E+00  0.66999E+00
 -0.99333E+00 -0.26453E+00  0.93057E+00
 -0.10216E+01 -0.17903E+00  0.69432E-01
 -0.10216E+01 -0.17903E+00  0.33001E+00
 -0.10216E+01 -0.17903E+00  0.66999E+00
 -0.10216E+01 -0.17903E+00  0.93057E+00
 -0.83686E+00 -0.46159E+00  0.69432E-01
 -0.83686E+00 -0.46159E+00  0.33001E+00
 -0.83686E+00 -0.46159E+00  0.66999E+00
 -0.83686E+00 -0.46159E+00  0.93057E+00
 -0.84280E+00 -0.37609E+00  0.69432E-01
 -0.84280E+00 -0.37609E+00  0.33001E+00
 -0.84280E+00 -0.37609E+00  0.66999E+00
 -0.84280E+00 -0.37609E+00  0.93057E+00
 -0.85055E+00 -0.26453E+00  0.69432E-01
 -0.85055E+00 -0.26453E+00  0.33001E+00
 -0.85055E+00 -0.26453E+00  0.66999E+00
 -0.85055E+00 -0.26453E+00  0.93057E+00
 -0.85648E+00 -0.17903E+00  0.69432E-01
 -0.85648E+00 -0.17903E+00  0.33001E+00
 -0.85648E+00 -0.17903E+00  0.66999E+00
 -0.85648E+00 -0.17903E+00  0.93057E+00
 -0.14020E+01 -0.13347E+00  0.69432E-01
 -0.14020E+01 -0.13347E+00  0.33001E+00
 -0.14020E+01 -0.13347E+00  0.66999E+00
 -0.14020E+01 -0.13347E+00  0.93057E+00
 -0.13224E+01 -0.47966E-01  0.69432E-01
 -0.13224E+01 -0.47966E-01  0.33001E+00
 -0.13224E+01 -0.47966E-01  0.66999E+00
 -0.13224E+01 -0.47966E-01  0.93057E+00
 -0.12186E+01  0.63591E-01  0.69432E-01
 -0.12186E+01  0.63591E-01  0.33001E+00
 -0.12186E+01  0.63591E-01  0.66999E+00
 -0.12186E+01  0.63591E-01  0.93057E+00
 -0.11390E+01  0.14909E+00  0.69432E-01
 -0.11390E+01  0.14909E+00  0.33001E+00
 -0.11390E+01  0.14909E+00  0.66999E+00
 -0.11390E+01  0.14909E+00  0.93057E+00
 -0.12369E+01 -0.13347E+00  0.69432E-01
 -0.12369E+01 -0.13347E+00  0.33001E+00
 -0.12369E+01 -0.13347E+00  0.66999E+00
 -0.12369E+01 -0.13347E+00  0.93057E+00
 -0.11796E+01 -0.47966E-01  0.69432E-01
 -0.11796E+01 -0.47966E-01  0.33001E+00
 -0.11796E+01 -0.47966E-01  0.66999E+00
 -0.11796E+01 -0.47966E-01  0.93057E+00
 -0.11049E+01  0.63591E-01  0.69432E-01
 -0.11049E+01  0.63591E-01  0.33001E+00
 -0.11049E+01  0.63591E-01  0.66999E+00
 -0.11049E+01  0.63591E-01  0.93057E+00
 -0.10476E+01  0.14909E+00  0.69432E-01
 -0.10476E+01  0.14909E+00  0.33001E+00
 -0.10476E+01  0.14909E+00  0.66999E+00
 -0.10476E+01  0.14909E+00  0.93057E+00
 -0.10216E+01 -0.13347E+00  0.69432E-01
 -0.10216E+01 -0.13347E+00  0.33001E+00
 -0.10216E+01 -0.13347E+00  0.66999E+00
 -0.10216E+01 -0.13347E+00  0.93057E+00
 -0.99333E+00 -0.47966E-01  0.69432E-01
 -0.99333E+00 -0.47966E-01  0.33001E+00
 -0.99333E+00 -0.47966E-01  0.66999E+00
 -0.99333E+00 -0.47966E-01  0.93057E+00
 -0.95652E+00  0.63591E-01  0.69432E-01
 -0.95652E+00  0.63591E-01  0.33001E+00
 -0.95652E+00  0.63591E-01  0.66999E+00
 -0.95652E+00  0.63591E-01  0.93057E+00
 -0.92830E+00  0.14909E+00  0.69432E-01
 -0.92830E+00  0.14909E+00  0.33001E+00
 -0.92830E+00  0.14909E+00  0.66999E+00
 -0.92830E+00  0.14909E+00  0.93057E+00
 -0.85648E+00 -0.13347E+00  0.69432E-01
 -0.85648E+00 -0.13347E+00  0.33001E+00
 -0.85648E+00 -0.13347E+00  0.66999E+00
 -0.85648E+00 -0.13347E+00  0.93057E+00
 -0.85055E+00 -0.47966E-01  0.69432E-01
 -0.85055E+00 -0.47966E-01  0.33001E+00
 -0.85055E+00 -0.47966E-01  0.66999E+00
 -0.85055E+00 -0.47966E-01  0.93057E+00
 -0.84280E+00  0.63591E-01  0.69432E-01
 -0.84280E+00  0.63591E-01  0.33001E+00
 -0.84280E+00  0.63591E-01  0.66999E+00
 -0.84280E+00  0.63591E-01  0.93057E+00
 -0.83686E+00  0.14909E+00  0.69432E-01
 -0.83686E+00  0.14909E+00  0.33001E+00
 -0.83686E+00  0.14909E+00  0.66999E+00
 -0.83686E+00  0.14909E+00  0.93057E+00
 -0.14460E+01 -0.89485E-01  0.69432E-01
 -0.14460E+01 -0.89485E-01  0.33001E+00
 -0.14460E+01 -0.89485E-01  0.66999E+00
 -0.14460E+01 -0.89485E-01  0.93057E+00
 -0.13605E+01 -0.99194E-02  0.69432E-01
 -0.13605E+01 -0.99194E-02  0.33001E+00
 -0.13605E+01 -0.99194E-02  0.66999E+00
 -0.13605E+01 -0.99194E-02  0.93057E+00
 -0.13605E+01  0.13287E+00  0.69432E-01
 -0.13605E+01  0.13287E+00  0.33001E+00
 -0.13605E+01  0.13287E+00  0.66999E+00
 -0.13605E+01  0.13287E+00  0.93057E+00
 -0.12489E+01  0.93891E-01  0.69432E-01
 -0.12489E+01  0.93891E-01  0.33001E+00
 -0.12489E+01  0.93891E-01  0.66999E+00
 -0.12489E+01  0.93891E-01  0.93057E+00
 -0.12489E+01  0.20761E+00  0.69432E-01
 -0.12489E+01  0.20761E+00  0.33001E+00
 -0.12489E+01  0.20761E+00  0.66999E+00
 -0.12489E+01  0.20761E+00  0.93057E+00
 -0.12489E+01  0.35598E+00  0.69432E-01
 -0.12489E+01  0.35598E+00  0.33001E+00
 -0.12489E+01  0.35598E+00  0.66999E+00
 -0.12489E+01  0.35598E+00  0.93057E+00
 -0.12489E+01  0.46970E+00  0.69432E-01
 -0.12489E+01  0.46970E+00  0.33001E+00
 -0.12489E+01  0.46970E+00  0.66999E+00
 -0.12489E+01  0.46970E+00  0.93057E+00
 -0.11634E+01  0.17346E+00  0.69432E-01
 -0.11634E+01  0.17346E+00  0.33001E+00
 -0.11634E+01  0.17346E+00  0.66999E+00
 -0.11634E+01  0.17346E+00  0.93057E+00
 -0.11634E+01  0.26490E+00  0.69432E-01
 -0.11634E+01  0.26490E+00  0.33001E+00
 -0.11634E+01  0.26490E+00  0.66999E+00
 -0.11634E+01  0.26490E+00  0.93057E+00
 -0.11634E+01  0.38420E+00  0.69432E-01
 -0.11634E+01  0.38420E+00  0.33001E+00
 -0.11634E+01  0.38420E+00  0.66999E+00
 -0.11634E+01  0.38420E+00  0.93057E+00
 -0.11634E+01  0.47564E+00  0.69432E-01
 -0.11634E+01  0.47564E+00  0.33001E+00
 -0.11634E+01  0.47564E+00  0.66999E+00
 -0.11634E+01  0.47564E+00  0.93057E+00
 -0.11178E+01  0.19466E+00  0.69432E-01
 -0.11178E+01  0.19466E+00  0.33001E+00
 -0.11178E+01  0.19466E+00  0.66999E+00
 -0.11178E+01  0.19466E+00  0.93057E+00
 -0.11178E+01  0.28016E+00  0.69432E-01
 -0.11178E+01  0.28016E+00  0.33001E+00
 -0.11178E+01  0.28016E+00  0.66999E+00
 -0.11178E+01  0.28016E+00  0.93057E+00
 -0.11178E+01  0.39172E+00  0.69432E-01
 -0.11178E+01  0.39172E+00  0.33001E+00
 -0.11178E+01  0.39172E+00  0.66999E+00
 -0.11178E+01  0.39172E+00  0.93057E+00
 -0.11178E+01  0.47722E+00  0.69432E-01
 -0.11178E+01  0.47722E+00  0.33001E+00
 -0.11178E+01  0.47722E+00  0.66999E+00
 -0.11178E+01  0.47722E+00  0.93057E+00
 -0.10323E+01  0.19466E+00  0.69432E-01
 -0.10323E+01  0.19466E+00  0.33001E+00
 -0.10323E+01  0.19466E+00  0.66999E+00
 -0.10323E+01  0.19466E+00  0.93057E+00
 -0.10323E+01  0.28016E+00  0.69432E-01
 -0.10323E+01  0.28016E+00  0.33001E+00
 -0.10323E+01  0.28016E+00  0.66999E+00
 -0.10323E+01  0.28016E+00  0.93057E+00
 -0.10323E+01  0.39172E+00  0.69432E-01
 -0.10323E+01  0.39172E+00  0.33001E+00
 -0.10323E+01  0.39172E+00  0.66999E+00
 -0.10323E+01  0.39172E+00  0.93057E+00
 -0.10323E+01  0.47722E+00  0.69432E-01
 -0.10323E+01  0.47722E+00  0.33001E+00
 -0.10323E+01  0.47722E+00  0.66999E+00
 -0.10323E+01  0.47722E+00  0.93057E+00
 -0.92078E+00  0.19466E+00  0.69432E-01
 -0.92078E+00  0.19466E+00  0.33001E+00
 -0.92078E+00  0.19466E+00  0.66999E+00
 -0.92078E+00  0.19466E+00  0.93057E+00
 -0.92078E+00  0.28016E+00  0.69432E-01
 -0.92078E+00  0.28016E+00  0.33001E+00
 -0.92078E+00  0.28016E+00  0.66999E+00
 -0.92078E+00  0.28016E+00  0.93057E+00
 -0.92078E+00  0.39172E+00  0.69432E-01
 -0.92078E+00  0.39172E+00  0.33001E+00
 -0.92078E+00  0.39172E+00  0.66999E+00
 -0.92078E+00  0.39172E+00  0.93057E+00
 -0.92078E+00  0.47722E+00  0.69432E-01
 -0.92078E+00  0.47722E+00  0.33001E+00
 -0.92078E+00  0.47722E+00  0.66999E+00
 -0.92078E+00  0.47722E+00  0.93057E+00
 -0.83528E+00  0.19466E+00  0.69432E-01
 -0.83528E+00  0.19466E+00  0.33001E+00
 -0.83528E+00  0.19466E+00  0.66999E+00
 -0.83528E+00  0.19466E+00  0.93057E+00
 -0.83528E+00  0.28016E+00  0.69432E-01
 -0.83528E+00  0.28016E+00  0.33001E+00
 -0.83528E+00  0.28016E+00  0.66999E+00
 -0.83528E+00  0.28016E+00  0.93057E+00
 -0.83528E+00  0.39172E+00  0.69432E-01
 -0.83528E+00  0.39172E+00  0.33001E+00
 -0.83528E+00  0.39172E+00  0.66999E+00
 -0.83528E+00  0.39172E+00  0.93057E+00
 -0.83528E+00  0.47722E+00  0.69432E-01
 -0.83528E+00  0.47722E+00  0.33001E+00
 -0.83528E+00  0.47722E+00  0.66999E+00
 -0.83528E+00  0.47722E+00  0.93057E+00
 -0.78972E+00 -0.78972E+00  0.69432E-01
 -0.78972E+00 -0.78972E+00  0.33001E+00
 -0.78972E+00 -0.78972E+00  0.66999E+00
 -0.78972E+00 -0.78972E+00  0.93057E+00
 -0.78972E+00 -0.70422E+00  0.69432E-01
 -0.78972E+00 -0.70422E+00  0.33001E+00
 -0.78972E+00 -0.70422E+00  0.66999E+00
 -0.78972E+00 -0.70422E+00  0.93057E+00
 -0.78972E+00 -0.59266E+00  0.69432E-01
 -0.78972E+00 -0.59266E+00  0.33001E+00
 -0.78972E+00 -0.59266E+00  0.66999E+00
 -0.78972E+00 -0.59266E+00  0.93057E+00
 -0.78972E+00 -0.50716E+00  0.69432E-01
 -0.78972E+00 -0.50716E+00  0.33001E+00
 -0.78972E+00 -0.50716E+00  0.66999E+00
 -0.78972E+00 -0.50716E+00  0.93057E+00
 -0.70422E+00 -0.78972E+00  0.69432E-01
 -0.70422E+00 -0.78972E+00  0.33001E+00
 -0.70422E+00 -0.78972E+00  0.66999E+00
 -0.70422E+00 -0.78972E+00  0.93057E+00
 -0.70422E+00 -0.70422E+00  0.69432E-01
 -0.70422E+00 -0.70422E+00  0.33001E+00
 -0.70422E+00 -0.70422E+00  0.66999E+00
 -0.70422E+00 -0.70422E+00  0.93057E+00
 -0.70422E+00 -0.59266E+00  0.69432E-01
 -0.70422E+00 -0.59266E+00  0.33001E+00
 -0.70422E+00 -0.59266E+00  0.66999E+00
 -0.70422E+00 -0.59266E+00  0.93057E+00
 -0.70422E+00 -0.50716E+00  0.69432E-01
 -0.70422E+00 -0.50716E+00  0.33001E+00
 -0.70422E+00 -0.50716E+00  0.66999E+00
 -0.70422E+00 -0.50716E+00  0.93057E+00
 -0.59266E+00 -0.78972E+00  0.69432E-01
 -0.59266E+00 -0.78972E+00  0.33001E+00
 -0.59266E+00 -0.78972E+00  0.66999E+00
 -0.59266E+00 -0.78972E+00  0.93057E+00
 -0.59266E+00 -0.70422E+00  0.69432E-01
 -0.59266E+00 -0.70422E+00  0.33001E+00
 -0.59266E+00 -0.70422E+00  0.66999E+00
 -0.59266E+00 -0.70422E+00  0.93057E+00
 -0.59266E+00 -0.59266E+00  0.69432E-01
 -0.59266E+00 -0.59266E+00  0.33001E+00
 -0.59266E+00 -0.59266E+00  0.66999E+00
 -0.59266E+00 -0.59266E+00  0.93057E+00
 -0.59266E+00 -0.50716E+00  0.69432E-01
 -0.59266E+00 -0.50716E+00  0.33001E+00
 -0.59266E+00 -0.50716E+00  0.66999E+00
 -0.59266E+00 -0.50716E+00  0.93057E+00
 -0.50716E+00 -0.78972E+00  0.69432E-01
 -0.50716E+00 -0.78972E+00  0.33001E+00
 -0.50716E+00 -0.78972E+00  0.66999E+00
 -0.50716E+00 -0.78972E+00  0.93057E+00
 -0.50716E+00 -0.70422E+00  0.69432E-01
 -0.50716E+00 -0.70422E+00  0.33001E+00
 -0.50716E+00 -0.70422E+00  0.66999E+00
 -0.50716E+00 -0.70422E+00  0.93057E+00
 -0.50716E+00 -0.59266E+00  0.69432E-01
 -0.50716E+00 -0.59266E+00  0.33001E+00
 -0.50716E+00 -0.59266E+00  0.66999E+00
 -0.50716E+00 -0.59266E+00  0.93057E+00
 -0.50716E+00 -0.50716E+00  0.69432E-01
 -0.50716E+00 -0.50716E+00  0.33001E+00
 -0.50716E+00 -0.50716E+00  0.66999E+00
 -0.50716E+00 -0.50716E+00  0.93057E+00
 -0.46159E+00 -0.78972E+00  0.69432E-01
 -0.46159E+00 -0.78972E+00  0.33001E+00
 -0.46159E+00 -0.78972E+00  0.66999E+00
 -0.46159E+00 -0.78972E+00  0.93057E+00
 -0.46159E+00 -0.70422E+00  0.69432E-01
 -0.46159E+00 -0.70422E+00  0.33001E+00
 -0.46159E+00 -0.70422E+00  0.66999E+00
 -0.46159E+00 -0.70422E+00  0.93057E+00
 -0.46159E+00 -0.59266E+00  0.69432E-01
 -0.46159E+00 -0.59266E+00  0.33001E+00
 -0.46159E+00 -0.59266E+00  0.66999E+00
 -0.46159E+00 -0.59266E+00  0.93057E+00
 -0.46159E+00 -0.50716E+00  0.69432E-01
 -0.46159E+00 -0.50716E+00  0.33001E+00
 -0.46159E+00 -0.50716E+00  0.66999E+00
 -0.46159E+00 -0.50716E+00  0.93057E+00
 -0.37609E+00 -0.78972E+00  0.69432E-01
 -0.37609E+00 -0.78972E+00  0.33001E+00
 -0.37609E+00 -0.78972E+00  0.66999E+00
 -0.37609E+00 -0.78972E+00  0.93057E+00
 -0.37609E+00 -0.70422E+00  0.69432E-01
 -0.37609E+00 -0.70422E+00  0.33001E+00
 -0.37609E+00 -0.70422E+00  0.66999E+00
 -0.37609E+00 -0.70422E+00  0.93057E+00
 -0.37609E+00 -0.59266E+00  0.69432E-01
 -0.37609E+00 -0.59266E+00  0.33001E+00
 -0.37609E+00 -0.59266E+00  0.66999E+00
 -0.37609E+00 -0.59266E+00  0.93057E+00
 -0.37609E+00 -0.50716E+00  0.69432E-01
 -0.37609E+00 -0.50716E+00  0.33001E+00
 -0.37609E+00 -0.50716E+00  0.66999E+00
 -0.37609E+00 -0.50716E+00  0.93057E+00
 -0.26453E+00 -0.78972E+00  0.69432E-01
 -0.26453E+00 -0.78972E+00  0.33001E+00
 -0.26453E+00 -0.78972E+00  0.66999E+00
 -0.26453E+00 -0.78972E+00  0.93057E+00
 -0.26453E+00 -0.70422E+00  0.69432E-01
 -0.26453E+00 -0.70422E+00  0.33001E+00
 -0.26453E+00 -0.70422E+00  0.66999E+00
 -0.26453E+00 -0.70422E+00  0.93057E+00
 -0.26453E+00 -0.59266E+00  0.69432E-01
 -0.26453E+00 -0.59266E+00  0.33001E+00
 -0.26453E+00 -0.59266E+00  0.66999E+00
 -0.26453E+00 -0.59266E+00  0.93057E+00
 -0.26453E+00 -0.50716E+00  0.69432E-01
 -0.26453E+00 -0.50716E+00  0.33001E+00
 -0.26453E+00 -0.50716E+00  0.66999E+00
 -0.26453E+00 -0.50716E+00  0.93057E+00
 -0.17903E+00 -0.78972E+00  0.69432E-01
 -0.17903E+00 -0.78972E+00  0.33001E+00
 -0.17903E+00 -0.78972E+00  0.66999E+00
 -0.17903E+00 -0.78972E+00  0.93057E+00
 -0.17903E+00 -0.70422E+00  0.69432E-01
 -0.17903E+00 -0.70422E+00  0.33001E+00
 -0.17903E+00 -0.70422E+00  0.66999E+00