TITLE = "Points"
VARIABLES = "x","y","z"
ZONE I=2362,J=2,K=1, DATAPACKING=POINT
 -0.16764E+00  0.61955E-01  0.69432E-01
 -0.16764E+00  0.61955E-01  0.33001E+00
 -0.16764E+00  0.61955E-01  0.66999E+00
 -0.16764E+00  0.61955E-01  0.93057E+00
 -0.16764E+00  0.11773E+00  0.69432E-01
 -0.16764E+00  0.11773E+00  0.33001E+00
 -0.16764E+00  0.11773E+00  0.66999E+00
 -0.16764E+00  0.11773E+00  0.93057E+00
 -0.16764E+00  0.16048E+00  0.69432E-01
 -0.16764E+00  0.16048E+00  0.33001E+00
 -0.16764E+00  0.16048E+00  0.66999E+00
 -0.16764E+00  0.16048E+00  0.93057E+00
 -0.16764E+00  0.18327E+00  0.69432E-01
 -0.16764E+00  0.18327E+00  0.33001E+00
 -0.16764E+00  0.18327E+00  0.66999E+00
 -0.16764E+00  0.18327E+00  0.93057E+00
  0.62773E-01  0.21169E-02  0.69432E-01
  0.62773E-01  0.21169E-02  0.33001E+00
  0.62773E-01  0.21169E-02  0.66999E+00
  0.62773E-01  0.21169E-02  0.93057E+00
  0.84148E-01  0.21169E-02  0.69432E-01
  0.84148E-01  0.21169E-02  0.33001E+00
  0.84148E-01  0.21169E-02  0.66999E+00
  0.84148E-01  0.21169E-02  0.93057E+00
  0.95539E-01  0.17215E-02  0.69432E-01
  0.95539E-01  0.17215E-02  0.33001E+00
  0.95539E-01  0.17215E-02  0.66999E+00
  0.95539E-01  0.17215E-02  0.93057E+00
  0.11691E+00  0.23732E-03  0.69432E-01
  0.11691E+00  0.23732E-03  0.33001E+00
  0.11691E+00  0.23732E-03  0.66999E+00
  0.11691E+00  0.23732E-03  0.93057E+00
  0.14480E+00 -0.16991E-02  0.69432E-01
  0.14480E+00 -0.16991E-02  0.33001E+00
  0.14480E+00 -0.16991E-02  0.66999E+00
  0.14480E+00 -0.16991E-02  0.93057E+00
  0.16618E+00 -0.31832E-02  0.69432E-01
  0.16618E+00 -0.31832E-02  0.33001E+00
  0.16618E+00 -0.31832E-02  0.66999E+00
  0.16618E+00 -0.31832E-02  0.93057E+00
 -0.15055E+00  0.60075E-01  0.69432E-01
 -0.15055E+00  0.60075E-01  0.33001E+00
 -0.15055E+00  0.60075E-01  0.66999E+00
 -0.15055E+00  0.60075E-01  0.93057E+00
 -0.15055E+00  0.11392E+00  0.69432E-01
 -0.15055E+00  0.11392E+00  0.33001E+00
 -0.15055E+00  0.11392E+00  0.66999E+00
 -0.15055E+00  0.11392E+00  0.93057E+00
 -0.15055E+00  0.15518E+00  0.69432E-01
 -0.15055E+00  0.15518E+00  0.33001E+00
 -0.15055E+00  0.15518E+00  0.66999E+00
 -0.15055E+00  0.15518E+00  0.93057E+00
 -0.12918E+00  0.53021E-01  0.69432E-01
 -0.12918E+00  0.53021E-01  0.33001E+00
 -0.12918E+00  0.53021E-01  0.66999E+00
 -0.12918E+00  0.53021E-01  0.93057E+00
 -0.12918E+00  0.99595E-01  0.69432E-01
 -0.12918E+00  0.99595E-01  0.33001E+00
 -0.12918E+00  0.99595E-01  0.66999E+00
 -0.12918E+00  0.99595E-01  0.93057E+00
 -0.12918E+00  0.13529E+00  0.69432E-01
 -0.12918E+00  0.13529E+00  0.33001E+00
 -0.12918E+00  0.13529E+00  0.66999E+00
 -0.12918E+00  0.13529E+00  0.93057E+00
 -0.10129E+00  0.43817E-01  0.69432E-01
 -0.10129E+00  0.43817E-01  0.33001E+00
 -0.10129E+00  0.43817E-01  0.66999E+00
 -0.10129E+00  0.43817E-01  0.93057E+00
 -0.10129E+00  0.80910E-01  0.69432E-01
 -0.10129E+00  0.80910E-01  0.33001E+00
 -0.10129E+00  0.80910E-01  0.66999E+00
 -0.10129E+00  0.80910E-01  0.93057E+00
 -0.10129E+00  0.10934E+00  0.69432E-01
 -0.10129E+00  0.10934E+00  0.33001E+00
 -0.10129E+00  0.10934E+00  0.66999E+00
 -0.10129E+00  0.10934E+00  0.93057E+00
 -0.79914E-01  0.36763E-01  0.69432E-01
 -0.79914E-01  0.36763E-01  0.33001E+00
 -0.79914E-01  0.36763E-01  0.66999E+00
 -0.79914E-01  0.36763E-01  0.93057E+00
 -0.79914E-01  0.66589E-01  0.69432E-01
 -0.79914E-01  0.66589E-01  0.33001E+00
 -0.79914E-01  0.66589E-01  0.66999E+00
 -0.79914E-01  0.66589E-01  0.93057E+00
 -0.79914E-01  0.89448E-01  0.69432E-01
 -0.79914E-01  0.89448E-01  0.33001E+00
 -0.79914E-01  0.89448E-01  0.66999E+00
 -0.79914E-01  0.89448E-01  0.93057E+00
 -0.68523E-01  0.34884E-01  0.69432E-01
 -0.68523E-01  0.34884E-01  0.33001E+00
 -0.68523E-01  0.34884E-01  0.66999E+00
 -0.68523E-01  0.34884E-01  0.93057E+00
 -0.68523E-01  0.62773E-01  0.69432E-01
 -0.68523E-01  0.62773E-01  0.33001E+00
 -0.68523E-01  0.62773E-01  0.66999E+00
 -0.68523E-01  0.62773E-01  0.93057E+00
 -0.68523E-01  0.84148E-01  0.69432E-01
 -0.68523E-01  0.84148E-01  0.33001E+00
 -0.68523E-01  0.84148E-01  0.66999E+00
 -0.68523E-01  0.84148E-01  0.93057E+00
 -0.47148E-01  0.34884E-01  0.69432E-01
 -0.47148E-01  0.34884E-01  0.33001E+00
 -0.47148E-01  0.34884E-01  0.66999E+00
 -0.47148E-01  0.34884E-01  0.93057E+00
 -0.47148E-01  0.62773E-01  0.69432E-01
 -0.47148E-01  0.62773E-01  0.33001E+00
 -0.47148E-01  0.62773E-01  0.66999E+00
 -0.47148E-01  0.62773E-01  0.93057E+00
 -0.47148E-01  0.84148E-01  0.69432E-01
 -0.47148E-01  0.84148E-01  0.33001E+00
 -0.47148E-01  0.84148E-01  0.66999E+00
 -0.47148E-01  0.84148E-01  0.93057E+00
 -0.19259E-01  0.34884E-01  0.69432E-01
 -0.19259E-01  0.34884E-01  0.33001E+00
 -0.19259E-01  0.34884E-01  0.66999E+00
 -0.19259E-01  0.34884E-01  0.93057E+00
 -0.19259E-01  0.62773E-01  0.69432E-01
 -0.19259E-01  0.62773E-01  0.33001E+00
 -0.19259E-01  0.62773E-01  0.66999E+00
 -0.19259E-01  0.62773E-01  0.93057E+00
 -0.19259E-01  0.84148E-01  0.69432E-01
 -0.19259E-01  0.84148E-01  0.33001E+00
 -0.19259E-01  0.84148E-01  0.66999E+00
 -0.19259E-01  0.84148E-01  0.93057E+00
  0.21169E-02  0.34884E-01  0.69432E-01
  0.21169E-02  0.34884E-01  0.33001E+00
  0.21169E-02  0.34884E-01  0.66999E+00
  0.21169E-02  0.34884E-01  0.93057E+00
  0.21169E-02  0.62773E-01  0.69432E-01
  0.21169E-02  0.62773E-01  0.33001E+00
  0.21169E-02  0.62773E-01  0.66999E+00
  0.21169E-02  0.62773E-01  0.93057E+00
  0.21169E-02  0.84148E-01  0.69432E-01
  0.21169E-02  0.84148E-01  0.33001E+00
  0.21169E-02  0.84148E-01  0.66999E+00
  0.21169E-02  0.84148E-01  0.93057E+00
 -0.73823E-01  0.95539E-01  0.69432E-01
 -0.73823E-01  0.95539E-01  0.33001E+00
 -0.73823E-01  0.95539E-01  0.66999E+00
 -0.73823E-01  0.95539E-01  0.93057E+00
 -0.93715E-01  0.11691E+00  0.69432E-01
 -0.93715E-01  0.11691E+00  0.33001E+00
 -0.93715E-01  0.11691E+00  0.66999E+00
 -0.93715E-01  0.11691E+00  0.93057E+00
 -0.11967E+00  0.14480E+00  0.69432E-01
 -0.11967E+00  0.14480E+00  0.33001E+00
 -0.11967E+00  0.14480E+00  0.66999E+00
 -0.11967E+00  0.14480E+00  0.93057E+00
 -0.13956E+00  0.16618E+00  0.69432E-01
 -0.13956E+00  0.16618E+00  0.33001E+00
 -0.13956E+00  0.16618E+00  0.66999E+00
 -0.13956E+00  0.16618E+00  0.93057E+00
 -0.50964E-01  0.95539E-01  0.69432E-01
 -0.50964E-01  0.95539E-01  0.33001E+00
 -0.50964E-01  0.95539E-01  0.66999E+00
 -0.50964E-01  0.95539E-01  0.93057E+00
 -0.65285E-01  0.11691E+00  0.69432E-01
 -0.65285E-01  0.11691E+00  0.33001E+00
 -0.65285E-01  0.11691E+00  0.66999E+00
 -0.65285E-01  0.11691E+00  0.93057E+00
 -0.83970E-01  0.14480E+00  0.69432E-01
 -0.83970E-01  0.14480E+00  0.33001E+00
 -0.83970E-01  0.14480E+00  0.66999E+00
 -0.83970E-01  0.14480E+00  0.93057E+00
 -0.98292E-01  0.16618E+00  0.69432E-01
 -0.98292E-01  0.16618E+00  0.33001E+00
 -0.98292E-01  0.16618E+00  0.66999E+00
 -0.98292E-01  0.16618E+00  0.93057E+00
 -0.21138E-01  0.95539E-01  0.69432E-01
 -0.21138E-01  0.95539E-01  0.33001E+00
 -0.21138E-01  0.95539E-01  0.66999E+00
 -0.21138E-01  0.95539E-01  0.93057E+00
 -0.28192E-01  0.11691E+00  0.69432E-01
 -0.28192E-01  0.11691E+00  0.33001E+00
 -0.28192E-01  0.11691E+00  0.66999E+00
 -0.28192E-01  0.11691E+00  0.93057E+00
 -0.37396E-01  0.14480E+00  0.69432E-01
 -0.37396E-01  0.14480E+00  0.33001E+00
 -0.37396E-01  0.14480E+00  0.66999E+00
 -0.37396E-01  0.14480E+00  0.93057E+00
 -0.44450E-01  0.16618E+00  0.69432E-01
 -0.44450E-01  0.16618E+00  0.33001E+00
 -0.44450E-01  0.16618E+00  0.66999E+00
 -0.44450E-01  0.16618E+00  0.93057E+00
  0.17215E-02  0.95539E-01  0.69432E-01
  0.17215E-02  0.95539E-01  0.33001E+00
  0.17215E-02  0.95539E-01  0.66999E+00
  0.17215E-02  0.95539E-01  0.93057E+00
  0.23732E-03  0.11691E+00  0.69432E-01
  0.23732E-03  0.11691E+00  0.33001E+00
  0.23732E-03  0.11691E+00  0.66999E+00
  0.23732E-03  0.11691E+00  0.93057E+00
 -0.16991E-02  0.14480E+00  0.69432E-01
 -0.16991E-02  0.14480E+00  0.33001E+00
 -0.16991E-02  0.14480E+00  0.66999E+00
 -0.16991E-02  0.14480E+00  0.93057E+00
 -0.31832E-02  0.16618E+00  0.69432E-01
 -0.31832E-02  0.16618E+00  0.33001E+00
 -0.31832E-02  0.16618E+00  0.66999E+00
 -0.31832E-02  0.16618E+00  0.93057E+00
  0.13508E-01  0.13508E-01  0.69432E-01
  0.13508E-01  0.13508E-01  0.33001E+00
  0.13508E-01  0.13508E-01  0.66999E+00
  0.13508E-01  0.13508E-01  0.93057E+00
  0.13508E-01  0.34884E-01  0.69432E-01
  0.13508E-01  0.34884E-01  0.33001E+00
  0.13508E-01  0.34884E-01  0.66999E+00
  0.13508E-01  0.34884E-01  0.93057E+00
  0.13508E-01  0.62773E-01  0.69432E-01
  0.13508E-01  0.62773E-01  0.33001E+00
  0.13508E-01  0.62773E-01  0.66999E+00
  0.13508E-01  0.62773E-01  0.93057E+00
  0.13508E-01  0.84148E-01  0.69432E-01
  0.13508E-01  0.84148E-01  0.33001E+00
  0.13508E-01  0.84148E-01  0.66999E+00
  0.13508E-01  0.84148E-01  0.93057E+00
  0.34884E-01  0.13508E-01  0.69432E-01
  0.34884E-01  0.13508E-01  0.33001E+00
  0.34884E-01  0.13508E-01  0.66999E+00
  0.34884E-01  0.13508E-01  0.93057E+00
  0.34884E-01  0.34884E-01  0.69432E-01
  0.34884E-01  0.34884E-01  0.33001E+00
  0.34884E-01  0.34884E-01  0.66999E+00
  0.34884E-01  0.34884E-01  0.93057E+00
  0.34884E-01  0.62773E-01  0.69432E-01
  0.34884E-01  0.62773E-01  0.33001E+00
  0.34884E-01  0.62773E-01  0.66999E+00
  0.34884E-01  0.62773E-01  0.93057E+00
  0.34884E-01  0.84148E-01  0.69432E-01
  0.34884E-01  0.84148E-01  0.33001E+00
  0.34884E-01  0.84148E-01  0.66999E+00
  0.34884E-01  0.84148E-01  0.93057E+00
  0.62773E-01  0.13508E-01  0.69432E-01
  0.62773E-01  0.13508E-01  0.33001E+00
  0.62773E-01  0.13508E-01  0.66999E+00
  0.62773E-01  0.13508E-01  0.93057E+00
  0.62773E-01  0.34884E-01  0.69432E-01
  0.62773E-01  0.34884E-01  0.33001E+00
  0.62773E-01  0.34884E-01  0.66999E+00
  0.62773E-01  0.34884E-01  0.93057E+00
  0.62773E-01  0.62773E-01  0.69432E-01
  0.62773E-01  0.62773E-01  0.33001E+00
  0.62773E-01  0.62773E-01  0.66999E+00
  0.62773E-01  0.62773E-01  0.93057E+00
  0.62773E-01  0.84148E-01  0.69432E-01
  0.62773E-01  0.84148E-01  0.33001E+00
  0.62773E-01  0.84148E-01  0.66999E+00
  0.62773E-01  0.84148E-01  0.93057E+00
  0.84148E-01  0.13508E-01  0.69432E-01
  0.84148E-01  0.13508E-01  0.33001E+00
  0.84148E-01  0.13508E-01  0.66999E+00
  0.84148E-01  0.13508E-01  0.93057E+00
  0.84148E-01  0.34884E-01  0.69432E-01
  0.84148E-01  0.34884E-01  0.33001E+00
  0.84148E-01  0.34884E-01  0.66999E+00
  0.84148E-01  0.34884E-01  0.93057E+00
  0.84148E-01  0.62773E-01  0.69432E-01
  0.84148E-01  0.62773E-01  0.33001E+00
  0.84148E-01  0.62773E-01  0.66999E+00
  0.84148E-01  0.62773E-01  0.93057E+00
  0.84148E-01  0.84148E-01  0.69432E-01
  0.84148E-01  0.84148E-01  0.33001E+00
  0.84148E-01  0.84148E-01  0.66999E+00
  0.84148E-01  0.84148E-01  0.93057E+00
  0.95539E-01  0.13508E-01  0.69432E-01
  0.95539E-01  0.13508E-01  0.33001E+00
  0.95539E-01  0.13508E-01  0.66999E+00
  0.95539E-01  0.13508E-01  0.93057E+00
  0.95539E-01  0.34884E-01  0.69432E-01
  0.95539E-01  0.34884E-01  0.33001E+00
  0.95539E-01  0.34884E-01  0.66999E+00
  0.95539E-01  0.34884E-01  0.93057E+00
  0.95539E-01  0.62773E-01  0.69432E-01
  0.95539E-01  0.62773E-01  0.33001E+00
  0.95539E-01  0.62773E-01  0.66999E+00
  0.95539E-01  0.62773E-01  0.93057E+00
  0.95539E-01  0.84148E-01  0.69432E-01
  0.95539E-01  0.84148E-01  0.33001E+00
  0.95539E-01  0.84148E-01  0.66999E+00
  0.95539E-01  0.84148E-01  0.93057E+00
  0.11691E+00  0.13508E-01  0.69432E-01
  0.11691E+00  0.13508E-01  0.33001E+00
  0.11691E+00  0.13508E-01  0.66999E+00
  0.11691E+00  0.13508E-01  0.93057E+00
  0.11691E+00  0.34884E-01  0.69432E-01
  0.11691E+00  0.34884E-01  0.33001E+00
  0.11691E+00  0.34884E-01  0.66999E+00
  0.11691E+00  0.34884E-01  0.93057E+00
  0.11691E+00  0.62773E-01  0.69432E-01
  0.11691E+00  0.62773E-01  0.33001E+00
  0.11691E+00  0.62773E-01  0.66999E+00
  0.11691E+00  0.62773E-01  0.93057E+00
  0.11691E+00  0.84148E-01  0.69432E-01
  0.11691E+00  0.84148E-01  0.33001E+00
  0.11691E+00  0.84148E-01  0.66999E+00
  0.11691E+00  0.84148E-01  0.93057E+00
  0.14480E+00  0.13508E-01  0.69432E-01
  0.14480E+00  0.13508E-01  0.33001E+00
  0.14480E+00  0.13508E-01  0.66999E+00
  0.14480E+00  0.13508E-01  0.93057E+00
  0.14480E+00  0.34884E-01  0.69432E-01
  0.14480E+00  0.34884E-01  0.33001E+00
  0.14480E+00  0.34884E-01  0.66999E+00
  0.14480E+00  0.34884E-01  0.93057E+00
  0.14480E+00  0.62773E-01  0.69432E-01
  0.14480E+00  0.62773E-01  0.33001E+00
  0.14480E+00  0.62773E-01  0.66999E+00
  0.14480E+00  0.62773E-01  0.93057E+00
  0.14480E+00  0.84148E-01  0.69432E-01
  0.14480E+00  0.84148E-01  0.33001E+00
  0.14480E+00  0.84148E-01  0.66999E+00
  0.14480E+00  0.84148E-01  0.93057E+00
  0.16618E+00  0.13508E-01  0.69432E-01
  0.16618E+00  0.13508E-01  0.33001E+00
  0.16618E+00  0.13508E-01  0.66999E+00
  0.16618E+00  0.13508E-01  0.93057E+00
  0.16618E+00  0.34884E-01  0.69432E-01
  0.16618E+00  0.34884E-01  0.33001E+00
  0.16618E+00  0.34884E-01  0.66999E+00
  0.16618E+00  0.34884E-01  0.93057E+00
  0.16618E+00  0.62773E-01  0.69432E-01
  0.16618E+00  0.62773E-01  0.33001E+00
  0.16618E+00  0.62773E-01  0.66999E+00
  0.16618E+00  0.62773E-01  0.93057E+00
  0.16618E+00  0.84148E-01  0.69432E-01
  0.16618E+00  0.84148E-01  0.33001E+00
  0.16618E+00  0.84148E-01  0.66999E+00
  0.16618E+00  0.84148E-01  0.93057E+00
  0.13508E-01  0.95539E-01  0.69432E-01
  0.13508E-01  0.95539E-01  0.33001E+00
  0.13508E-01  0.95539E-01  0.66999E+00
  0.13508E-01  0.95539E-01  0.93057E+00
  0.13508E-01  0.11691E+00  0.69432E-01
  0.13508E-01  0.11691E+00  0.33001E+00
  0.13508E-01  0.11691E+00  0.66999E+00
  0.13508E-01  0.11691E+00  0.93057E+00
  0.13508E-01  0.14480E+00  0.69432E-01
  0.13508E-01  0.14480E+00  0.33001E+00
  0.13508E-01  0.14480E+00  0.66999E+00
  0.13508E-01  0.14480E+00  0.93057E+00
  0.13508E-01  0.16618E+00  0.69432E-01
  0.13508E-01  0.16618E+00  0.33001E+00
  0.13508E-01  0.16618E+00  0.66999E+00
  0.13508E-01  0.16618E+00  0.93057E+00
  0.34884E-01  0.95539E-01  0.69432E-01
  0.34884E-01  0.95539E-01  0.33001E+00
  0.34884E-01  0.95539E-01  0.66999E+00
  0.34884E-01  0.95539E-01  0.93057E+00
  0.34884E-01  0.11691E+00  0.69432E-01
  0.34884E-01  0.11691E+00  0.33001E+00
  0.34884E-01  0.11691E+00  0.66999E+00
  0.34884E-01  0.11691E+00  0.93057E+00
  0.34884E-01  0.14480E+00  0.69432E-01
  0.34884E-01  0.14480E+00  0.33001E+00
  0.34884E-01  0.14480E+00  0.66999E+00
  0.34884E-01  0.14480E+00  0.93057E+00
  0.34884E-01  0.16618E+00  0.69432E-01
  0.34884E-01  0.16618E+00  0.33001E+00
  0.34884E-01  0.16618E+00  0.66999E+00
  0.34884E-01  0.16618E+00  0.93057E+00
  0.62773E-01  0.95539E-01  0.69432E-01
  0.62773E-01  0.95539E-01  0.33001E+00
  0.62773E-01  0.95539E-01  0.66999E+00
  0.62773E-01  0.95539E-01  0.93057E+00
  0.62773E-01  0.11691E+00  0.69432E-01
  0.62773E-01  0.11691E+00  0.33001E+00
  0.62773E-01  0.11691E+00  0.66999E+00
  0.62773E-01  0.11691E+00  0.93057E+00
  0.62773E-01  0.14480E+00  0.69432E-01
  0.62773E-01  0.14480E+00  0.33001E+00
  0.62773E-01  0.14480E+00  0.66999E+00
  0.62773E-01  0.14480E+00  0.93057E+00
  0.62773E-01  0.16618E+00  0.69432E-01
  0.62773E-01  0.16618E+00  0.33001E+00
  0.62773E-01  0.16618E+00  0.66999E+00
  0.62773E-01  0.16618E+00  0.93057E+00
  0.84148E-01  0.95539E-01  0.69432E-01
  0.84148E-01  0.95539E-01  0.33001E+00
  0.84148E-01  0.95539E-01  0.66999E+00
  0.84148E-01  0.95539E-01  0.93057E+00
  0.84148E-01  0.11691E+00  0.69432E-01
  0.84148E-01  0.11691E+00  0.33001E+00
  0.84148E-01  0.11691E+00  0.66999E+00
  0.84148E-01  0.11691E+00  0.93057E+00
  0.84148E-01  0.14480E+00  0.69432E-01
  0.84148E-01  0.14480E+00  0.33001E+00
  0.84148E-01  0.14480E+00  0.66999E+00
  0.84148E-01  0.14480E+00  0.93057E+00
  0.84148E-01  0.16618E+00  0.69432E-01
  0.84148E-01  0.16618E+00  0.33001E+00
  0.84148E-01  0.16618E+00  0.66999E+00
  0.84148E-01  0.16618E+00  0.93057E+00
  0.95539E-01  0.95539E-01  0.69432E-01
  0.95539E-01  0.95539E-01  0.33001E+00
  0.95539E-01  0.95539E-01  0.66999E+00
  0.95539E-01  0.95539E-01  0.93057E+00
  0.95539E-01  0.11691E+00  0.69432E-01
  0.95539E-01  0.11691E+00  0.33001E+00
  0.95539E-01  0.11691E+00  0.66999E+00
  0.95539E-01  0.11691E+00  0.93057E+00
  0.95539E-01  0.14480E+00  0.69432E-01
  0.95539E-01  0.14480E+00  0.33001E+00
  0.95539E-01  0.14480E+00  0.66999E+00
  0.95539E-01  0.14480E+00  0.93057E+00
  0.95539E-01  0.16618E+00  0.69432E-01
  0.95539E-01  0.16618E+00  0.33001E+00
  0.95539E-01  0.16618E+00  0.66999E+00
  0.95539E-01  0.16618E+00  0.93057E+00
  0.11691E+00  0.95539E-01  0.69432E-01
  0.11691E+00  0.95539E-01  0.33001E+00
  0.11691E+00  0.95539E-01  0.66999E+00
  0.11691E+00  0.95539E-01  0.93057E+00
  0.11691E+00  0.11691E+00  0.69432E-01
  0.11691E+00  0.11691E+00  0.33001E+00
  0.11691E+00  0.11691E+00  0.66999E+00
  0.11691E+00  0.11691E+00  0.93057E+00
  0.11691E+00  0.14480E+00  0.69432E-01
  0.11691E+00  0.14480E+00  0.33001E+00
  0.11691E+00  0.14480E+00  0.66999E+00
  0.11691E+00  0.14480E+00  0.93057E+00
  0.11691E+00  0.16618E+00  0.69432E-01
  0.11691E+00  0.16618E+00  0.33001E+00
  0.11691E+00  0.16618E+00  0.66999E+00
  0.11691E+00  0.16618E+00  0.93057E+00
  0.14480E+00  0.95539E-01  0.69432E-01
  0.14480E+00  0.95539E-01  0.33001E+00
  0.14480E+00  0.95539E-01  0.66999E+00
  0.14480E+00  0.95539E-01  0.93057E+00
  0.14480E+00  0.11691E+00  0.69432E-01
  0.14480E+00  0.11691E+00  0.33001E+00
  0.14480E+00  0.11691E+00  0.66999E+00
  0.14480E+00  0.11691E+00  0.93057E+00
  0.14480E+00  0.14480E+00  0.69432E-01
  0.14480E+00  0.14480E+00  0.33001E+00
  0.14480E+00  0.14480E+00  0.66999E+00
  0.14480E+00  0.14480E+00  0.93057E+00
  0.16618E+00  0.95539E-01  0.69432E-01
  0.16618E+00  0.95539E-01  0.33001E+00
  0.16618E+00  0.95539E-01  0.66999E+00
  0.16618E+00  0.95539E-01  0.93057E+00
  0.16618E+00  0.11691E+00  0.69432E-01
  0.16618E+00  0.11691E+00  0.33001E+00
  0.16618E+00  0.11691E+00  0.66999E+00
  0.16618E+00  0.11691E+00  0.93057E+00
  0.17757E+00 -0.31832E-02  0.69432E-01
  0.17757E+00 -0.31832E-02  0.33001E+00
  0.17757E+00 -0.31832E-02  0.66999E+00
  0.17757E+00 -0.31832E-02  0.93057E+00
  0.19895E+00 -0.37396E-01  0.69432E-01
  0.19895E+00 -0.37396E-01  0.33001E+00
  0.19895E+00 -0.16991E-02  0.69432E-01
  0.19895E+00 -0.16991E-02  0.33001E+00
  0.19895E+00 -0.16991E-02  0.66999E+00
  0.19895E+00 -0.16991E-02  0.93057E+00
  0.22684E+00 -0.28192E-01  0.69432E-01
  0.22684E+00 -0.28192E-01  0.33001E+00
  0.22684E+00 -0.28192E-01  0.66999E+00
  0.22684E+00 -0.28192E-01  0.93057E+00
  0.22684E+00  0.23732E-03  0.69432E-01
  0.22684E+00  0.23732E-03  0.33001E+00
  0.22684E+00  0.23732E-03  0.66999E+00
  0.22684E+00  0.23732E-03  0.93057E+00
  0.24821E+00 -0.50964E-01  0.69432E-01
  0.24821E+00 -0.21138E-01  0.69432E-01
  0.24821E+00 -0.21138E-01  0.33001E+00
  0.24821E+00 -0.21138E-01  0.66999E+00
  0.24821E+00 -0.21138E-01  0.93057E+00
  0.24821E+00  0.17215E-02  0.69432E-01
  0.24821E+00  0.17215E-02  0.33001E+00
  0.24821E+00  0.17215E-02  0.66999E+00
  0.24821E+00  0.17215E-02  0.93057E+00
  0.25960E+00 -0.47148E-01  0.69432E-01
  0.25960E+00 -0.47148E-01  0.33001E+00
  0.25960E+00 -0.47148E-01  0.66999E+00
  0.25960E+00 -0.47148E-01  0.93057E+00
  0.25960E+00 -0.19259E-01  0.69432E-01
  0.25960E+00 -0.19259E-01  0.33001E+00
  0.25960E+00 -0.19259E-01  0.66999E+00
  0.25960E+00 -0.19259E-01  0.93057E+00
  0.25960E+00  0.21169E-02  0.69432E-01
  0.25960E+00  0.21169E-02  0.33001E+00
  0.25960E+00  0.21169E-02  0.66999E+00
  0.25960E+00  0.21169E-02  0.93057E+00
  0.28098E+00 -0.47148E-01  0.69432E-01
  0.28098E+00 -0.47148E-01  0.33001E+00
  0.28098E+00 -0.47148E-01  0.66999E+00
  0.28098E+00 -0.47148E-01  0.93057E+00
  0.28098E+00 -0.19259E-01  0.69432E-01
  0.28098E+00 -0.19259E-01  0.33001E+00
  0.28098E+00 -0.19259E-01  0.66999E+00
  0.28098E+00 -0.19259E-01  0.93057E+00
  0.28098E+00  0.21169E-02  0.69432E-01
  0.28098E+00  0.21169E-02  0.33001E+00
  0.28098E+00  0.21169E-02  0.66999E+00
  0.28098E+00  0.21169E-02  0.93057E+00
  0.30887E+00 -0.47148E-01  0.69432E-01
  0.30887E+00 -0.47148E-01  0.33001E+00
  0.30887E+00 -0.47148E-01  0.66999E+00
  0.30887E+00 -0.47148E-01  0.93057E+00
  0.30887E+00 -0.19259E-01  0.69432E-01
  0.30887E+00 -0.19259E-01  0.33001E+00
  0.30887E+00 -0.19259E-01  0.66999E+00
  0.30887E+00 -0.19259E-01  0.93057E+00
  0.30887E+00  0.21169E-02  0.69432E-01
  0.30887E+00  0.21169E-02  0.33001E+00
  0.30887E+00  0.21169E-02  0.66999E+00
  0.30887E+00  0.21169E-02  0.93057E+00
  0.33024E+00 -0.68523E-01  0.69432E-01
  0.33024E+00 -0.68523E-01  0.33001E+00
  0.33024E+00 -0.68523E-01  0.66999E+00
  0.33024E+00 -0.68523E-01  0.93057E+00
  0.33024E+00 -0.47148E-01  0.69432E-01
  0.33024E+00 -0.47148E-01  0.33001E+00
  0.33024E+00 -0.47148E-01  0.66999E+00
  0.33024E+00 -0.47148E-01  0.93057E+00
  0.33024E+00 -0.19259E-01  0.69432E-01
  0.33024E+00 -0.19259E-01  0.33001E+00
  0.33024E+00 -0.19259E-01  0.66999E+00
  0.33024E+00 -0.19259E-01  0.93057E+00
  0.33024E+00  0.21169E-02  0.69432E-01
  0.33024E+00  0.21169E-02  0.33001E+00
  0.33024E+00  0.21169E-02  0.66999E+00
  0.33024E+00  0.21169E-02  0.93057E+00
  0.36301E+00 -0.79914E-01  0.69432E-01
  0.36301E+00 -0.79914E-01  0.33001E+00
  0.36301E+00 -0.79914E-01  0.66999E+00
  0.39090E+00 -0.79914E-01  0.69432E-01
  0.39090E+00 -0.79914E-01  0.33001E+00
  0.39090E+00 -0.79914E-01  0.66999E+00
  0.39090E+00 -0.79914E-01  0.93057E+00
  0.41227E+00 -0.79914E-01  0.69432E-01
  0.41227E+00 -0.79914E-01  0.33001E+00
  0.41227E+00 -0.79914E-01  0.66999E+00
  0.41227E+00 -0.79914E-01  0.93057E+00
  0.42366E+00 -0.79914E-01  0.69432E-01
  0.42366E+00 -0.79914E-01  0.33001E+00
  0.42366E+00 -0.79914E-01  0.66999E+00
  0.42366E+00 -0.79914E-01  0.93057E+00
  0.44504E+00 -0.10129E+00  0.69432E-01
  0.44504E+00 -0.10129E+00  0.33001E+00
  0.44504E+00 -0.10129E+00  0.66999E+00
  0.44504E+00 -0.79914E-01  0.69432E-01
  0.44504E+00 -0.79914E-01  0.33001E+00
  0.44504E+00 -0.79914E-01  0.66999E+00
  0.44504E+00 -0.79914E-01  0.93057E+00
  0.47293E+00 -0.10129E+00  0.69432E-01
  0.47293E+00 -0.10129E+00  0.33001E+00
  0.47293E+00 -0.10129E+00  0.66999E+00
  0.47293E+00 -0.10129E+00  0.93057E+00
  0.47293E+00 -0.79914E-01  0.69432E-01
  0.47293E+00 -0.79914E-01  0.33001E+00
  0.47293E+00 -0.79914E-01  0.66999E+00
  0.47293E+00 -0.79914E-01  0.93057E+00
  0.49430E+00 -0.10129E+00  0.69432E-01
  0.49430E+00 -0.10129E+00  0.33001E+00
  0.49430E+00 -0.10129E+00  0.66999E+00
  0.49430E+00 -0.10129E+00  0.93057E+00
  0.49430E+00 -0.79914E-01  0.69432E-01
  0.49430E+00 -0.79914E-01  0.33001E+00
  0.49430E+00 -0.79914E-01  0.66999E+00
  0.49430E+00 -0.79914E-01  0.93057E+00
  0.34163E+00 -0.68523E-01  0.69432E-01
  0.34163E+00 -0.68523E-01  0.33001E+00
  0.34163E+00 -0.68523E-01  0.66999E+00
  0.34163E+00 -0.68523E-01  0.93057E+00
  0.34163E+00 -0.47148E-01  0.69432E-01
  0.34163E+00 -0.47148E-01  0.33001E+00
  0.34163E+00 -0.47148E-01  0.66999E+00
  0.34163E+00 -0.47148E-01  0.93057E+00
  0.34163E+00 -0.19259E-01  0.69432E-01
  0.34163E+00 -0.19259E-01  0.33001E+00
  0.34163E+00 -0.19259E-01  0.66999E+00
  0.34163E+00 -0.19259E-01  0.93057E+00
  0.34163E+00  0.21169E-02  0.69432E-01
  0.34163E+00  0.21169E-02  0.33001E+00
  0.34163E+00  0.21169E-02  0.66999E+00
  0.34163E+00  0.21169E-02  0.93057E+00
  0.36301E+00 -0.68523E-01  0.69432E-01
  0.36301E+00 -0.68523E-01  0.33001E+00
  0.36301E+00 -0.68523E-01  0.66999E+00
  0.36301E+00 -0.68523E-01  0.93057E+00
  0.36301E+00 -0.47148E-01  0.69432E-01
  0.36301E+00 -0.47148E-01  0.33001E+00
  0.36301E+00 -0.47148E-01  0.66999E+00
  0.36301E+00 -0.47148E-01  0.93057E+00
  0.36301E+00 -0.19259E-01  0.69432E-01
  0.36301E+00 -0.19259E-01  0.33001E+00
  0.36301E+00 -0.19259E-01  0.66999E+00
  0.36301E+00 -0.19259E-01  0.93057E+00
  0.36301E+00  0.21169E-02  0.69432E-01
  0.36301E+00  0.21169E-02  0.33001E+00
  0.36301E+00  0.21169E-02  0.66999E+00
  0.36301E+00  0.21169E-02  0.93057E+00
  0.39090E+00 -0.68523E-01  0.69432E-01
  0.39090E+00 -0.68523E-01  0.33001E+00
  0.39090E+00 -0.68523E-01  0.66999E+00
  0.39090E+00 -0.68523E-01  0.93057E+00
  0.39090E+00 -0.47148E-01  0.69432E-01
  0.39090E+00 -0.47148E-01  0.33001E+00
  0.39090E+00 -0.47148E-01  0.66999E+00
  0.39090E+00 -0.47148E-01  0.93057E+00
  0.39090E+00 -0.19259E-01  0.69432E-01
  0.39090E+00 -0.19259E-01  0.33001E+00
  0.39090E+00 -0.19259E-01  0.66999E+00
  0.39090E+00 -0.19259E-01  0.93057E+00
  0.39090E+00  0.21169E-02  0.69432E-01
  0.39090E+00  0.21169E-02  0.33001E+00
  0.39090E+00  0.21169E-02  0.66999E+00
  0.39090E+00  0.21169E-02  0.93057E+00
  0.41227E+00 -0.68523E-01  0.69432E-01
  0.41227E+00 -0.68523E-01  0.33001E+00
  0.41227E+00 -0.68523E-01  0.66999E+00
  0.41227E+00 -0.68523E-01  0.93057E+00
  0.41227E+00 -0.47148E-01  0.69432E-01
  0.41227E+00 -0.47148E-01  0.33001E+00
  0.41227E+00 -0.47148E-01  0.66999E+00
  0.41227E+00 -0.47148E-01  0.93057E+00
  0.41227E+00 -0.19259E-01  0.69432E-01
  0.41227E+00 -0.19259E-01  0.33001E+00
  0.41227E+00 -0.19259E-01  0.66999E+00
  0.41227E+00 -0.19259E-01  0.93057E+00
  0.41227E+00  0.21169E-02  0.69432E-01
  0.41227E+00  0.21169E-02  0.33001E+00
  0.41227E+00  0.21169E-02  0.66999E+00
  0.41227E+00  0.21169E-02  0.93057E+00
  0.42366E+00 -0.68523E-01  0.69432E-01
  0.42366E+00 -0.68523E-01  0.33001E+00
  0.42366E+00 -0.68523E-01  0.66999E+00
  0.42366E+00 -0.68523E-01  0.93057E+00
  0.42366E+00 -0.47148E-01  0.69432E-01
  0.42366E+00 -0.47148E-01  0.33001E+00
  0.42366E+00 -0.47148E-01  0.66999E+00
  0.42366E+00 -0.47148E-01  0.93057E+00
  0.42366E+00 -0.19259E-01  0.69432E-01
  0.42366E+00 -0.19259E-01  0.33001E+00
  0.42366E+00 -0.19259E-01  0.66999E+00
  0.42366E+00 -0.19259E-01  0.93057E+00
  0.42366E+00  0.21169E-02  0.69432E-01
  0.42366E+00  0.21169E-02  0.33001E+00
  0.42366E+00  0.21169E-02  0.66999E+00
  0.42366E+00  0.21169E-02  0.93057E+00
  0.44504E+00 -0.68523E-01  0.69432E-01
  0.44504E+00 -0.68523E-01  0.33001E+00
  0.44504E+00 -0.68523E-01  0.66999E+00
  0.44504E+00 -0.68523E-01  0.93057E+00
  0.44504E+00 -0.47148E-01  0.69432E-01
  0.44504E+00 -0.47148E-01  0.33001E+00
  0.44504E+00 -0.47148E-01  0.66999E+00
  0.44504E+00 -0.47148E-01  0.93057E+00
  0.44504E+00 -0.19259E-01  0.69432E-01
  0.44504E+00 -0.19259E-01  0.33001E+00
  0.44504E+00 -0.19259E-01  0.66999E+00
  0.44504E+00 -0.19259E-01  0.93057E+00
  0.44504E+00  0.21169E-02  0.69432E-01
  0.44504E+00  0.21169E-02  0.33001E+00
  0.44504E+00  0.21169E-02  0.66999E+00
  0.44504E+00  0.21169E-02  0.93057E+00
  0.47293E+00 -0.68523E-01  0.69432E-01
  0.47293E+00 -0.68523E-01  0.33001E+00
  0.47293E+00 -0.68523E-01  0.66999E+00
  0.47293E+00 -0.68523E-01  0.93057E+00
  0.47293E+00 -0.47148E-01  0.69432E-01
  0.47293E+00 -0.47148E-01  0.33001E+00
  0.47293E+00 -0.47148E-01  0.66999E+00
  0.47293E+00 -0.47148E-01  0.93057E+00
  0.47293E+00 -0.19259E-01  0.69432E-01
  0.47293E+00 -0.19259E-01  0.33001E+00
  0.47293E+00 -0.19259E-01  0.66999E+00
  0.47293E+00 -0.19259E-01  0.93057E+00
  0.49430E+00 -0.68523E-01  0.69432E-01
  0.49430E+00 -0.68523E-01  0.33001E+00
  0.49430E+00 -0.68523E-01  0.66999E+00
  0.49430E+00 -0.68523E-01  0.93057E+00
  0.49430E+00 -0.47148E-01  0.69432E-01
  0.49430E+00 -0.47148E-01  0.33001E+00
  0.49430E+00 -0.47148E-01  0.66999E+00
  0.49430E+00 -0.47148E-01  0.93057E+00
  0.49430E+00 -0.19259E-01  0.69432E-01
  0.49430E+00 -0.19259E-01  0.33001E+00
  0.49430E+00 -0.19259E-01  0.66999E+00
  0.49430E+00 -0.19259E-01  0.93057E+00
  0.17757E+00  0.13508E-01  0.69432E-01
  0.17757E+00  0.13508E-01  0.33001E+00
  0.17757E+00  0.13508E-01  0.66999E+00
  0.17757E+00  0.13508E-01  0.93057E+00
  0.17757E+00  0.34884E-01  0.69432E-01
  0.17757E+00  0.34884E-01  0.33001E+00
  0.17757E+00  0.34884E-01  0.66999E+00
  0.17757E+00  0.34884E-01  0.93057E+00
  0.17757E+00  0.62773E-01  0.69432E-01
  0.17757E+00  0.62773E-01  0.33001E+00
  0.17757E+00  0.62773E-01  0.66999E+00
  0.17757E+00  0.62773E-01  0.93057E+00
  0.17757E+00  0.84148E-01  0.69432E-01
  0.17757E+00  0.84148E-01  0.33001E+00
  0.17757E+00  0.84148E-01  0.66999E+00
  0.17757E+00  0.84148E-01  0.93057E+00
  0.19895E+00  0.13508E-01  0.69432E-01
  0.19895E+00  0.13508E-01  0.33001E+00
  0.19895E+00  0.13508E-01  0.66999E+00
  0.19895E+00  0.13508E-01  0.93057E+00
  0.19895E+00  0.34884E-01  0.69432E-01
  0.19895E+00  0.34884E-01  0.33001E+00
  0.19895E+00  0.34884E-01  0.66999E+00
  0.19895E+00  0.34884E-01  0.93057E+00
  0.19895E+00  0.62773E-01  0.69432E-01
  0.19895E+00  0.62773E-01  0.33001E+00
  0.19895E+00  0.62773E-01  0.66999E+00
  0.19895E+00  0.62773E-01  0.93057E+00
  0.19895E+00  0.84148E-01  0.69432E-01
  0.19895E+00  0.84148E-01  0.33001E+00
  0.19895E+00  0.84148E-01  0.66999E+00
  0.19895E+00  0.84148E-01  0.93057E+00
  0.22684E+00  0.13508E-01  0.69432E-01
  0.22684E+00  0.13508E-01  0.33001E+00
  0.22684E+00  0.13508E-01  0.66999E+00
  0.22684E+00  0.13508E-01  0.93057E+00
  0.22684E+00  0.34884E-01  0.69432E-01
  0.22684E+00  0.34884E-01  0.33001E+00
  0.22684E+00  0.34884E-01  0.66999E+00
  0.22684E+00  0.34884E-01  0.93057E+00
  0.22684E+00  0.62773E-01  0.69432E-01
  0.22684E+00  0.62773E-01  0.33001E+00
  0.22684E+00  0.62773E-01  0.66999E+00
  0.22684E+00  0.62773E-01  0.93057E+00
  0.24821E+00  0.13508E-01  0.69432E-01
  0.24821E+00  0.13508E-01  0.33001E+00
  0.24821E+00  0.13508E-01  0.66999E+00
  0.24821E+00  0.13508E-01  0.93057E+00
  0.24821E+00  0.34884E-01  0.69432E-01
  0.24821E+00  0.34884E-01  0.33001E+00
  0.24821E+00  0.34884E-01  0.66999E+00
  0.24821E+00  0.34884E-01  0.93057E+00
  0.24821E+00  0.62773E-01  0.69432E-01
  0.24821E+00  0.62773E-01  0.33001E+00
  0.24821E+00  0.62773E-01  0.66999E+00
  0.24821E+00  0.62773E-01  0.93057E+00
  0.25960E+00  0.13508E-01  0.69432E-01
  0.25960E+00  0.13508E-01  0.33001E+00
  0.25960E+00  0.13508E-01  0.66999E+00
  0.25960E+00  0.13508E-01  0.93057E+00
  0.25960E+00  0.34884E-01  0.69432E-01
  0.25960E+00  0.34884E-01  0.33001E+00
  0.25960E+00  0.34884E-01  0.66999E+00
  0.25960E+00  0.34884E-01  0.93057E+00
  0.28098E+00  0.13508E-01  0.69432E-01
  0.28098E+00  0.13508E-01  0.33001E+00
  0.28098E+00  0.13508E-01  0.66999E+00