TITLE = "Points"
VARIABLES = "x","y","z"
ZONE I=2062,J=2,K=1, DATAPACKING=POINT
 -0.51183E+00 -0.66013E+00  0.69432E-01
 -0.51183E+00 -0.66013E+00  0.33001E+00
 -0.51183E+00 -0.66013E+00  0.66999E+00
 -0.51183E+00 -0.66013E+00  0.93057E+00
 -0.49429E+00 -0.67515E+00  0.69432E-01
 -0.49429E+00 -0.67515E+00  0.33001E+00
 -0.49429E+00 -0.67515E+00  0.66999E+00
 -0.49429E+00 -0.67515E+00  0.93057E+00
 -0.46567E+00 -0.69878E+00  0.69432E-01
 -0.46567E+00 -0.69878E+00  0.33001E+00
 -0.46567E+00 -0.69878E+00  0.66999E+00
 -0.46567E+00 -0.69878E+00  0.93057E+00
 -0.42927E+00 -0.72721E+00  0.69432E-01
 -0.42927E+00 -0.72721E+00  0.33001E+00
 -0.42927E+00 -0.72721E+00  0.66999E+00
 -0.42927E+00 -0.72721E+00  0.93057E+00
 -0.38686E+00 -0.75819E+00  0.69432E-01
 -0.38686E+00 -0.75819E+00  0.33001E+00
 -0.38686E+00 -0.75819E+00  0.66999E+00
 -0.38686E+00 -0.75819E+00  0.93057E+00
 -0.34743E+00 -0.78508E+00  0.69432E-01
 -0.34743E+00 -0.78508E+00  0.33001E+00
 -0.34743E+00 -0.78508E+00  0.66999E+00
 -0.34743E+00 -0.78508E+00  0.93057E+00
 -0.62908E+00 -0.54636E+00  0.69432E-01
 -0.62908E+00 -0.54636E+00  0.33001E+00
 -0.62908E+00 -0.54636E+00  0.66999E+00
 -0.62908E+00 -0.54636E+00  0.93057E+00
 -0.66013E+00 -0.51183E+00  0.69432E-01
 -0.66013E+00 -0.51183E+00  0.33001E+00
 -0.66013E+00 -0.51183E+00  0.66999E+00
 -0.66013E+00 -0.51183E+00  0.93057E+00
 -0.67515E+00 -0.49429E+00  0.69432E-01
 -0.67515E+00 -0.49429E+00  0.33001E+00
 -0.67515E+00 -0.49429E+00  0.66999E+00
 -0.67515E+00 -0.49429E+00  0.93057E+00
 -0.69878E+00 -0.46567E+00  0.69432E-01
 -0.69878E+00 -0.46567E+00  0.33001E+00
 -0.69878E+00 -0.46567E+00  0.66999E+00
 -0.69878E+00 -0.46567E+00  0.93057E+00
 -0.72721E+00 -0.42927E+00  0.69432E-01
 -0.72721E+00 -0.42927E+00  0.33001E+00
 -0.72721E+00 -0.42927E+00  0.66999E+00
 -0.72721E+00 -0.42927E+00  0.93057E+00
 -0.58852E+00 -0.58852E+00  0.69432E-01
 -0.58852E+00 -0.58852E+00  0.33001E+00
 -0.58852E+00 -0.58852E+00  0.66999E+00
 -0.58852E+00 -0.58852E+00  0.93057E+00
 -0.60860E+00 -0.56798E+00  0.69432E-01
 -0.60860E+00 -0.56798E+00  0.33001E+00
 -0.60860E+00 -0.56798E+00  0.66999E+00
 -0.60860E+00 -0.56798E+00  0.93057E+00
 -0.64125E+00 -0.53301E+00  0.69432E-01
 -0.64125E+00 -0.53301E+00  0.33001E+00
 -0.64125E+00 -0.53301E+00  0.66999E+00
 -0.64125E+00 -0.53301E+00  0.93057E+00
 -0.67035E+00 -0.49992E+00  0.69432E-01
 -0.67035E+00 -0.49992E+00  0.33001E+00
 -0.67035E+00 -0.49992E+00  0.66999E+00
 -0.67035E+00 -0.49992E+00  0.93057E+00
 -0.56798E+00 -0.60860E+00  0.69432E-01
 -0.56798E+00 -0.60860E+00  0.33001E+00
 -0.56798E+00 -0.60860E+00  0.66999E+00
 -0.56798E+00 -0.60860E+00  0.93057E+00
 -0.58852E+00 -0.58852E+00  0.69432E-01
 -0.58852E+00 -0.58852E+00  0.33001E+00
 -0.58852E+00 -0.58852E+00  0.66999E+00
 -0.58852E+00 -0.58852E+00  0.93057E+00
 -0.62047E+00 -0.55560E+00  0.69432E-01
 -0.62047E+00 -0.55560E+00  0.33001E+00
 -0.62047E+00 -0.55560E+00  0.66999E+00
 -0.62047E+00 -0.55560E+00  0.93057E+00
 -0.64221E+00 -0.53196E+00  0.69432E-01
 -0.64221E+00 -0.53196E+00  0.33001E+00
 -0.64221E+00 -0.53196E+00  0.66999E+00
 -0.64221E+00 -0.53196E+00  0.93057E+00
 -0.53301E+00 -0.64125E+00  0.69432E-01
 -0.53301E+00 -0.64125E+00  0.33001E+00
 -0.53301E+00 -0.64125E+00  0.66999E+00
 -0.53301E+00 -0.64125E+00  0.93057E+00
 -0.55560E+00 -0.62047E+00  0.69432E-01
 -0.55560E+00 -0.62047E+00  0.33001E+00
 -0.55560E+00 -0.62047E+00  0.66999E+00
 -0.55560E+00 -0.62047E+00  0.93057E+00
 -0.58852E+00 -0.58852E+00  0.69432E-01
 -0.58852E+00 -0.58852E+00  0.33001E+00
 -0.58852E+00 -0.58852E+00  0.66999E+00
 -0.58852E+00 -0.58852E+00  0.93057E+00
 -0.60936E+00 -0.56720E+00  0.69432E-01
 -0.60936E+00 -0.56720E+00  0.33001E+00
 -0.60936E+00 -0.56720E+00  0.66999E+00
 -0.60936E+00 -0.56720E+00  0.93057E+00
 -0.49992E+00 -0.67035E+00  0.69432E-01
 -0.49992E+00 -0.67035E+00  0.33001E+00
 -0.49992E+00 -0.67035E+00  0.66999E+00
 -0.49992E+00 -0.67035E+00  0.93057E+00
 -0.53196E+00 -0.64221E+00  0.69432E-01
 -0.53196E+00 -0.64221E+00  0.33001E+00
 -0.53196E+00 -0.64221E+00  0.66999E+00
 -0.53196E+00 -0.64221E+00  0.93057E+00
 -0.56720E+00 -0.60936E+00  0.69432E-01
 -0.56720E+00 -0.60936E+00  0.33001E+00
 -0.56720E+00 -0.60936E+00  0.66999E+00
 -0.56720E+00 -0.60936E+00  0.93057E+00
 -0.58852E+00 -0.58852E+00  0.69432E-01
 -0.58852E+00 -0.58852E+00  0.33001E+00
 -0.58852E+00 -0.58852E+00  0.66999E+00
 -0.58852E+00 -0.58852E+00  0.93057E+00
 -0.49051E+00 -0.67838E+00  0.69432E-01
 -0.49051E+00 -0.67838E+00  0.33001E+00
 -0.49051E+00 -0.67838E+00  0.66999E+00
 -0.49051E+00 -0.67838E+00  0.93057E+00
 -0.50389E+00 -0.66696E+00  0.69432E-01
 -0.50389E+00 -0.66696E+00  0.33001E+00
 -0.50389E+00 -0.66696E+00  0.66999E+00
 -0.50389E+00 -0.66696E+00  0.93057E+00
 -0.53961E+00 -0.63525E+00  0.69432E-01
 -0.53961E+00 -0.63525E+00  0.33001E+00
 -0.53961E+00 -0.63525E+00  0.66999E+00
 -0.53961E+00 -0.63525E+00  0.93057E+00
 -0.57200E+00 -0.60470E+00  0.69432E-01
 -0.57200E+00 -0.60470E+00  0.33001E+00
 -0.57200E+00 -0.60470E+00  0.66999E+00
 -0.57200E+00 -0.60470E+00  0.93057E+00
 -0.45840E+00 -0.70460E+00  0.69432E-01
 -0.45840E+00 -0.70460E+00  0.33001E+00
 -0.45840E+00 -0.70460E+00  0.66999E+00
 -0.45840E+00 -0.70460E+00  0.93057E+00
 -0.47101E+00 -0.69448E+00  0.69432E-01
 -0.47101E+00 -0.69448E+00  0.33001E+00
 -0.47101E+00 -0.69448E+00  0.66999E+00
 -0.47101E+00 -0.69448E+00  0.93057E+00
 -0.50530E+00 -0.66575E+00  0.69432E-01
 -0.50530E+00 -0.66575E+00  0.33001E+00
 -0.50530E+00 -0.66575E+00  0.66999E+00
 -0.50530E+00 -0.66575E+00  0.93057E+00
 -0.53856E+00 -0.63621E+00  0.69432E-01
 -0.53856E+00 -0.63621E+00  0.33001E+00
 -0.53856E+00 -0.63621E+00  0.66999E+00
 -0.53856E+00 -0.63621E+00  0.93057E+00
 -0.41634E+00 -0.73692E+00  0.69432E-01
 -0.41634E+00 -0.73692E+00  0.33001E+00
 -0.41634E+00 -0.73692E+00  0.66999E+00
 -0.41634E+00 -0.73692E+00  0.93057E+00
 -0.42807E+00 -0.72811E+00  0.69432E-01
 -0.42807E+00 -0.72811E+00  0.33001E+00
 -0.42807E+00 -0.72811E+00  0.66999E+00
 -0.42807E+00 -0.72811E+00  0.93057E+00
 -0.46545E+00 -0.69895E+00  0.69432E-01
 -0.46545E+00 -0.69895E+00  0.33001E+00
 -0.46545E+00 -0.69895E+00  0.66999E+00
 -0.46545E+00 -0.69895E+00  0.93057E+00
 -0.49973E+00 -0.67051E+00  0.69432E-01
 -0.49973E+00 -0.67051E+00  0.33001E+00
 -0.49973E+00 -0.67051E+00  0.66999E+00
 -0.49973E+00 -0.67051E+00  0.93057E+00
 -0.37971E+00 -0.76321E+00  0.69432E-01
 -0.37971E+00 -0.76321E+00  0.33001E+00
 -0.37971E+00 -0.76321E+00  0.66999E+00
 -0.37971E+00 -0.76321E+00  0.93057E+00
 -0.38977E+00 -0.75615E+00  0.69432E-01
 -0.38977E+00 -0.75615E+00  0.33001E+00
 -0.38977E+00 -0.75615E+00  0.66999E+00
 -0.38977E+00 -0.75615E+00  0.93057E+00
 -0.42779E+00 -0.72832E+00  0.69432E-01
 -0.42779E+00 -0.72832E+00  0.33001E+00
 -0.42779E+00 -0.72832E+00  0.66999E+00
 -0.42779E+00 -0.72832E+00  0.93057E+00
 -0.46286E+00 -0.70102E+00  0.69432E-01
 -0.46286E+00 -0.70102E+00  0.33001E+00
 -0.46286E+00 -0.70102E+00  0.66999E+00
 -0.46286E+00 -0.70102E+00  0.93057E+00
 -0.67838E+00 -0.49051E+00  0.69432E-01
 -0.67838E+00 -0.49051E+00  0.33001E+00
 -0.67838E+00 -0.49051E+00  0.66999E+00
 -0.67838E+00 -0.49051E+00  0.93057E+00
 -0.70460E+00 -0.45840E+00  0.69432E-01
 -0.70460E+00 -0.45840E+00  0.33001E+00
 -0.70460E+00 -0.45840E+00  0.66999E+00
 -0.70460E+00 -0.45840E+00  0.93057E+00
 -0.73692E+00 -0.41634E+00  0.69432E-01
 -0.73692E+00 -0.41634E+00  0.33001E+00
 -0.73692E+00 -0.41634E+00  0.66999E+00
 -0.73692E+00 -0.41634E+00  0.93057E+00
 -0.76321E+00 -0.37971E+00  0.69432E-01
 -0.76321E+00 -0.37971E+00  0.33001E+00
 -0.76321E+00 -0.37971E+00  0.66999E+00
 -0.76321E+00 -0.37971E+00  0.93057E+00
 -0.66696E+00 -0.50389E+00  0.69432E-01
 -0.66696E+00 -0.50389E+00  0.33001E+00
 -0.66696E+00 -0.50389E+00  0.66999E+00
 -0.66696E+00 -0.50389E+00  0.93057E+00
 -0.69448E+00 -0.47101E+00  0.69432E-01
 -0.69448E+00 -0.47101E+00  0.33001E+00
 -0.69448E+00 -0.47101E+00  0.66999E+00
 -0.69448E+00 -0.47101E+00  0.93057E+00
 -0.72811E+00 -0.42807E+00  0.69432E-01
 -0.72811E+00 -0.42807E+00  0.33001E+00
 -0.72811E+00 -0.42807E+00  0.66999E+00
 -0.72811E+00 -0.42807E+00  0.93057E+00
 -0.75615E+00 -0.38977E+00  0.69432E-01
 -0.75615E+00 -0.38977E+00  0.33001E+00
 -0.75615E+00 -0.38977E+00  0.66999E+00
 -0.75615E+00 -0.38977E+00  0.93057E+00
 -0.63525E+00 -0.53961E+00  0.69432E-01
 -0.63525E+00 -0.53961E+00  0.33001E+00
 -0.63525E+00 -0.53961E+00  0.66999E+00
 -0.63525E+00 -0.53961E+00  0.93057E+00
 -0.66575E+00 -0.50530E+00  0.69432E-01
 -0.66575E+00 -0.50530E+00  0.33001E+00
 -0.66575E+00 -0.50530E+00  0.66999E+00
 -0.66575E+00 -0.50530E+00  0.93057E+00
 -0.69895E+00 -0.46545E+00  0.69432E-01
 -0.69895E+00 -0.46545E+00  0.33001E+00
 -0.69895E+00 -0.46545E+00  0.66999E+00
 -0.69895E+00 -0.46545E+00  0.93057E+00
 -0.72832E+00 -0.42779E+00  0.69432E-01
 -0.72832E+00 -0.42779E+00  0.33001E+00
 -0.72832E+00 -0.42779E+00  0.66999E+00
 -0.72832E+00 -0.42779E+00  0.93057E+00
 -0.60470E+00 -0.57200E+00  0.69432E-01
 -0.60470E+00 -0.57200E+00  0.33001E+00
 -0.60470E+00 -0.57200E+00  0.66999E+00
 -0.60470E+00 -0.57200E+00  0.93057E+00
 -0.63621E+00 -0.53856E+00  0.69432E-01
 -0.63621E+00 -0.53856E+00  0.33001E+00
 -0.63621E+00 -0.53856E+00  0.66999E+00
 -0.63621E+00 -0.53856E+00  0.93057E+00
 -0.67051E+00 -0.49973E+00  0.69432E-01
 -0.67051E+00 -0.49973E+00  0.33001E+00
 -0.67051E+00 -0.49973E+00  0.66999E+00
 -0.67051E+00 -0.49973E+00  0.93057E+00
 -0.70102E+00 -0.46286E+00  0.69432E-01
 -0.70102E+00 -0.46286E+00  0.33001E+00
 -0.70102E+00 -0.46286E+00  0.66999E+00
 -0.70102E+00 -0.46286E+00  0.93057E+00
 -0.58852E+00 -0.58852E+00  0.69432E-01
 -0.58852E+00 -0.58852E+00  0.33001E+00
 -0.58852E+00 -0.58852E+00  0.66999E+00
 -0.58852E+00 -0.58852E+00  0.93057E+00
 -0.60987E+00 -0.56667E+00  0.69432E-01
 -0.60987E+00 -0.56667E+00  0.33001E+00
 -0.60987E+00 -0.56667E+00  0.66999E+00
 -0.60987E+00 -0.56667E+00  0.93057E+00
 -0.66570E+00 -0.50536E+00  0.69432E-01
 -0.66570E+00 -0.50536E+00  0.33001E+00
 -0.66570E+00 -0.50536E+00  0.66999E+00
 -0.66570E+00 -0.50536E+00  0.93057E+00
 -0.69657E+00 -0.46842E+00  0.69432E-01
 -0.69657E+00 -0.46842E+00  0.33001E+00
 -0.69657E+00 -0.46842E+00  0.66999E+00
 -0.69657E+00 -0.46842E+00  0.93057E+00
 -0.56667E+00 -0.60987E+00  0.69432E-01
 -0.56667E+00 -0.60987E+00  0.33001E+00
 -0.56667E+00 -0.60987E+00  0.66999E+00
 -0.56667E+00 -0.60987E+00  0.93057E+00
 -0.58852E+00 -0.58852E+00  0.69432E-01
 -0.58852E+00 -0.58852E+00  0.33001E+00
 -0.58852E+00 -0.58852E+00  0.66999E+00
 -0.58852E+00 -0.58852E+00  0.93057E+00
 -0.63525E+00 -0.53961E+00  0.69432E-01
 -0.63525E+00 -0.53961E+00  0.33001E+00
 -0.63525E+00 -0.53961E+00  0.66999E+00
 -0.63525E+00 -0.53961E+00  0.93057E+00
 -0.66724E+00 -0.50356E+00  0.69432E-01
 -0.66724E+00 -0.50356E+00  0.33001E+00
 -0.66724E+00 -0.50356E+00  0.66999E+00
 -0.66724E+00 -0.50356E+00  0.93057E+00
 -0.50536E+00 -0.66570E+00  0.69432E-01
 -0.50536E+00 -0.66570E+00  0.33001E+00
 -0.50536E+00 -0.66570E+00  0.66999E+00
 -0.50536E+00 -0.66570E+00  0.93057E+00
 -0.53961E+00 -0.63525E+00  0.69432E-01
 -0.53961E+00 -0.63525E+00  0.33001E+00
 -0.53961E+00 -0.63525E+00  0.66999E+00
 -0.53961E+00 -0.63525E+00  0.93057E+00
 -0.58852E+00 -0.58852E+00  0.69432E-01
 -0.58852E+00 -0.58852E+00  0.33001E+00
 -0.58852E+00 -0.58852E+00  0.66999E+00
 -0.58852E+00 -0.58852E+00  0.93057E+00
 -0.46842E+00 -0.69657E+00  0.69432E-01
 -0.46842E+00 -0.69657E+00  0.33001E+00
 -0.46842E+00 -0.69657E+00  0.66999E+00
 -0.46842E+00 -0.69657E+00  0.93057E+00
 -0.50356E+00 -0.66724E+00  0.69432E-01
 -0.50356E+00 -0.66724E+00  0.33001E+00
 -0.50356E+00 -0.66724E+00  0.66999E+00
 -0.50356E+00 -0.66724E+00  0.93057E+00
 -0.33947E+00 -0.79031E+00  0.69432E-01
 -0.33947E+00 -0.79031E+00  0.33001E+00
 -0.33947E+00 -0.79031E+00  0.66999E+00
 -0.33947E+00 -0.79031E+00  0.93057E+00
 -0.25855E+00 -0.83947E+00  0.69432E-01
 -0.25855E+00 -0.83947E+00  0.33001E+00
 -0.29966E+00 -0.81535E+00  0.69432E-01
 -0.29966E+00 -0.81535E+00  0.33001E+00
 -0.29966E+00 -0.81535E+00  0.66999E+00
 -0.29966E+00 -0.81535E+00  0.93057E+00
 -0.21523E+00 -0.86310E+00  0.69432E-01
 -0.21523E+00 -0.86310E+00  0.33001E+00
 -0.21523E+00 -0.86310E+00  0.66999E+00
 -0.21523E+00 -0.86310E+00  0.93057E+00
 -0.22698E+00 -0.85688E+00  0.69432E-01
 -0.22698E+00 -0.85688E+00  0.33001E+00
 -0.22698E+00 -0.85688E+00  0.66999E+00
 -0.22698E+00 -0.85688E+00  0.93057E+00
 -0.13597E+00 -0.90182E+00  0.69432E-01
 -0.17438E+00 -0.88375E+00  0.69432E-01
 -0.17438E+00 -0.88375E+00  0.33001E+00
 -0.17438E+00 -0.88375E+00  0.66999E+00
 -0.17438E+00 -0.88375E+00  0.93057E+00
 -0.18341E+00 -0.87933E+00  0.69432E-01
 -0.18341E+00 -0.87933E+00  0.33001E+00
 -0.18341E+00 -0.87933E+00  0.66999E+00
 -0.18341E+00 -0.87933E+00  0.93057E+00
 -0.12794E+00 -0.90545E+00  0.69432E-01
 -0.12794E+00 -0.90545E+00  0.33001E+00
 -0.12794E+00 -0.90545E+00  0.66999E+00
 -0.12794E+00 -0.90545E+00  0.93057E+00
 -0.13840E+00 -0.90073E+00  0.69432E-01
 -0.13840E+00 -0.90073E+00  0.33001E+00
 -0.13840E+00 -0.90073E+00  0.66999E+00
 -0.13840E+00 -0.90073E+00  0.93057E+00
 -0.17438E+00 -0.88375E+00  0.69432E-01
 -0.17438E+00 -0.88375E+00  0.33001E+00
 -0.17438E+00 -0.88375E+00  0.66999E+00
 -0.17438E+00 -0.88375E+00  0.93057E+00
 -0.82581E-01 -0.92485E+00  0.69432E-01
 -0.82581E-01 -0.92485E+00  0.33001E+00
 -0.82581E-01 -0.92485E+00  0.66999E+00
 -0.82581E-01 -0.92485E+00  0.93057E+00
 -0.92441E-01 -0.92077E+00  0.69432E-01
 -0.92441E-01 -0.92077E+00  0.33001E+00
 -0.92441E-01 -0.92077E+00  0.66999E+00
 -0.92441E-01 -0.92077E+00  0.93057E+00
 -0.12866E+00 -0.90512E+00  0.69432E-01
 -0.12866E+00 -0.90512E+00  0.33001E+00
 -0.12866E+00 -0.90512E+00  0.66999E+00
 -0.12866E+00 -0.90512E+00  0.93057E+00
 -0.20217E-02 -0.95518E+00  0.69432E-01
 -0.20217E-02 -0.95518E+00  0.33001E+00
 -0.20217E-02 -0.95518E+00  0.66999E+00
 -0.20217E-02 -0.95518E+00  0.93057E+00
 -0.39673E-01 -0.94164E+00  0.69432E-01
 -0.39673E-01 -0.94164E+00  0.33001E+00
 -0.39673E-01 -0.94164E+00  0.66999E+00
 -0.39673E-01 -0.94164E+00  0.93057E+00
 -0.46741E-01 -0.93897E+00  0.69432E-01
 -0.46741E-01 -0.93897E+00  0.33001E+00
 -0.46741E-01 -0.93897E+00  0.66999E+00
 -0.46741E-01 -0.93897E+00  0.93057E+00
  0.52071E-01 -0.97273E+00  0.69432E-01
  0.52071E-01 -0.97273E+00  0.33001E+00
  0.52071E-01 -0.97273E+00  0.66999E+00
  0.52071E-01 -0.97273E+00  0.93057E+00
  0.46064E-01 -0.97088E+00  0.69432E-01
  0.46064E-01 -0.97088E+00  0.33001E+00
  0.46064E-01 -0.97088E+00  0.66999E+00
  0.46064E-01 -0.97088E+00  0.93057E+00
  0.85644E-02 -0.95880E+00  0.69432E-01
  0.85644E-02 -0.95880E+00  0.33001E+00
  0.85644E-02 -0.95880E+00  0.66999E+00
  0.85644E-02 -0.95880E+00  0.93057E+00
  0.20138E-02 -0.95656E+00  0.69432E-01
  0.20138E-02 -0.95656E+00  0.33001E+00
  0.20138E-02 -0.95656E+00  0.66999E+00
  0.20138E-02 -0.95656E+00  0.93057E+00
  0.14276E+00 -0.99731E+00  0.69432E-01
  0.14276E+00 -0.99731E+00  0.33001E+00
  0.14276E+00 -0.99731E+00  0.66999E+00
  0.22769E+00 -0.10151E+01  0.69432E-01
  0.22769E+00 -0.10151E+01  0.33001E+00
  0.22769E+00 -0.10151E+01  0.66999E+00
  0.22769E+00 -0.10151E+01  0.93057E+00
  0.27802E+00 -0.10233E+01  0.69432E-01
  0.27802E+00 -0.10233E+01  0.33001E+00
  0.27802E+00 -0.10233E+01  0.66999E+00
  0.27802E+00 -0.10233E+01  0.93057E+00
  0.28918E+00 -0.10248E+01  0.69432E-01
  0.28918E+00 -0.10248E+01  0.33001E+00
  0.28918E+00 -0.10248E+01  0.66999E+00
  0.28918E+00 -0.10248E+01  0.93057E+00
  0.37163E+00 -0.10340E+01  0.69432E-01
  0.37163E+00 -0.10340E+01  0.33001E+00
  0.37163E+00 -0.10340E+01  0.66999E+00
  0.35335E+00 -0.10324E+01  0.69432E-01
  0.35335E+00 -0.10324E+01  0.33001E+00
  0.35335E+00 -0.10324E+01  0.66999E+00
  0.35335E+00 -0.10324E+01  0.93057E+00
  0.42877E+00 -0.10377E+01  0.69432E-01
  0.42877E+00 -0.10377E+01  0.33001E+00
  0.42877E+00 -0.10377E+01  0.66999E+00
  0.42877E+00 -0.10377E+01  0.93057E+00
  0.42776E+00 -0.10376E+01  0.69432E-01
  0.42776E+00 -0.10376E+01  0.33001E+00
  0.42776E+00 -0.10376E+01  0.66999E+00
  0.42776E+00 -0.10376E+01  0.93057E+00
  0.47957E+00 -0.10392E+01  0.69432E-01
  0.47957E+00 -0.10392E+01  0.33001E+00
  0.47957E+00 -0.10392E+01  0.66999E+00
  0.47957E+00 -0.10392E+01  0.93057E+00
  0.47923E+00 -0.10392E+01  0.69432E-01
  0.47923E+00 -0.10392E+01  0.33001E+00
  0.47923E+00 -0.10392E+01  0.66999E+00
  0.47923E+00 -0.10392E+01  0.93057E+00
  0.91171E-01 -0.98406E+00  0.69432E-01
  0.91171E-01 -0.98406E+00  0.33001E+00
  0.91171E-01 -0.98406E+00  0.66999E+00
  0.91171E-01 -0.98406E+00  0.93057E+00
  0.78704E-01 -0.98062E+00  0.69432E-01
  0.78704E-01 -0.98062E+00  0.33001E+00
  0.78704E-01 -0.98062E+00  0.66999E+00
  0.78704E-01 -0.98062E+00  0.93057E+00
  0.48632E-01 -0.97167E+00  0.69432E-01
  0.48632E-01 -0.97167E+00  0.33001E+00
  0.48632E-01 -0.97167E+00  0.66999E+00
  0.48632E-01 -0.97167E+00  0.93057E+00
  0.42624E-01 -0.96983E+00  0.69432E-01
  0.42624E-01 -0.96983E+00  0.33001E+00
  0.42624E-01 -0.96983E+00  0.66999E+00
  0.42624E-01 -0.96983E+00  0.93057E+00
  0.14018E+00 -0.99669E+00  0.69432E-01
  0.14018E+00 -0.99669E+00  0.33001E+00
  0.14018E+00 -0.99669E+00  0.66999E+00
  0.14018E+00 -0.99669E+00  0.93057E+00
  0.13532E+00 -0.99553E+00  0.69432E-01
  0.13532E+00 -0.99553E+00  0.33001E+00
  0.13532E+00 -0.99553E+00  0.66999E+00
  0.13532E+00 -0.99553E+00  0.93057E+00
  0.98520E-01 -0.98607E+00  0.69432E-01
  0.98520E-01 -0.98607E+00  0.33001E+00
  0.98520E-01 -0.98607E+00  0.66999E+00
  0.98520E-01 -0.98607E+00  0.93057E+00
  0.93079E-01 -0.98458E+00  0.69432E-01
  0.93079E-01 -0.98458E+00  0.33001E+00
  0.93079E-01 -0.98458E+00  0.66999E+00
  0.93079E-01 -0.98458E+00  0.93057E+00
  0.20327E+00 -0.10105E+01  0.69432E-01
  0.20327E+00 -0.10105E+01  0.33001E+00
  0.20327E+00 -0.10105E+01  0.66999E+00
  0.20327E+00 -0.10105E+01  0.93057E+00
  0.19188E+00 -0.10082E+01  0.69432E-01
  0.19188E+00 -0.10082E+01  0.33001E+00
  0.19188E+00 -0.10082E+01  0.66999E+00
  0.19188E+00 -0.10082E+01  0.93057E+00
  0.18634E+00 -0.10070E+01  0.69432E-01
  0.18634E+00 -0.10070E+01  0.33001E+00
  0.18634E+00 -0.10070E+01  0.66999E+00
  0.18634E+00 -0.10070E+01  0.93057E+00
  0.18209E+00 -0.10062E+01  0.69432E-01
  0.18209E+00 -0.10062E+01  0.33001E+00
  0.18209E+00 -0.10062E+01  0.66999E+00
  0.18209E+00 -0.10062E+01  0.93057E+00
  0.27643E+00 -0.10230E+01  0.69432E-01
  0.27643E+00 -0.10230E+01  0.33001E+00
  0.27643E+00 -0.10230E+01  0.66999E+00
  0.27643E+00 -0.10230E+01  0.93057E+00
  0.24288E+00 -0.10177E+01  0.69432E-01
  0.24288E+00 -0.10177E+01  0.33001E+00
  0.24288E+00 -0.10177E+01  0.66999E+00
  0.24288E+00 -0.10177E+01  0.93057E+00
  0.23816E+00 -0.10169E+01  0.69432E-01
  0.23816E+00 -0.10169E+01  0.33001E+00
  0.23816E+00 -0.10169E+01  0.66999E+00
  0.23816E+00 -0.10169E+01  0.93057E+00
  0.23454E+00 -0.10163E+01  0.69432E-01
  0.23454E+00 -0.10163E+01  0.33001E+00
  0.23454E+00 -0.10163E+01  0.66999E+00
  0.23454E+00 -0.10163E+01  0.93057E+00
  0.28759E+00 -0.10246E+01  0.69432E-01
  0.28759E+00 -0.10246E+01  0.33001E+00
  0.28759E+00 -0.10246E+01  0.66999E+00
  0.28759E+00 -0.10246E+01  0.93057E+00
  0.28461E+00 -0.10242E+01  0.69432E-01
  0.28461E+00 -0.10242E+01  0.33001E+00
  0.28461E+00 -0.10242E+01  0.66999E+00
  0.28461E+00 -0.10242E+01  0.93057E+00
  0.28072E+00 -0.10236E+01  0.69432E-01
  0.28072E+00 -0.10236E+01  0.33001E+00
  0.28072E+00 -0.10236E+01  0.66999E+00
  0.28072E+00 -0.10236E+01  0.93057E+00
  0.27774E+00 -0.10232E+01  0.69432E-01
  0.27774E+00 -0.10232E+01  0.33001E+00
  0.27774E+00 -0.10232E+01  0.66999E+00
  0.27774E+00 -0.10232E+01  0.93057E+00
  0.33879E+00 -0.10309E+01  0.69432E-01
  0.33879E+00 -0.10309E+01  0.33001E+00
  0.33879E+00 -0.10309E+01  0.66999E+00
  0.33879E+00 -0.10309E+01  0.93057E+00
  0.33646E+00 -0.10306E+01  0.69432E-01
  0.33646E+00 -0.10306E+01  0.33001E+00
  0.33646E+00 -0.10306E+01  0.66999E+00
  0.33646E+00 -0.10306E+01  0.93057E+00
  0.33342E+00 -0.10303E+01  0.69432E-01
  0.33342E+00 -0.10303E+01  0.33001E+00
  0.33342E+00 -0.10303E+01  0.66999E+00
  0.33342E+00 -0.10303E+01  0.93057E+00
  0.33109E+00 -0.10300E+01  0.69433E-01
  0.33109E+00 -0.10300E+01  0.33001E+00
  0.33109E+00 -0.10300E+01  0.66999E+00
  0.33109E+00 -0.10300E+01  0.93057E+00
  0.42723E+00 -0.10376E+01  0.69432E-01
  0.42723E+00 -0.10376E+01  0.33001E+00
  0.42723E+00 -0.10376E+01  0.66999E+00
  0.42723E+00 -0.10376E+01  0.93057E+00
  0.42622E+00 -0.10376E+01  0.69432E-01
  0.42622E+00 -0.10376E+01  0.33001E+00
  0.42622E+00 -0.10376E+01  0.66999E+00
  0.42622E+00 -0.10376E+01  0.93057E+00
  0.42491E+00 -0.10375E+01  0.69432E-01
  0.42491E+00 -0.10375E+01  0.33001E+00
  0.42491E+00 -0.10375E+01  0.66999E+00
  0.42491E+00 -0.10375E+01  0.93057E+00
  0.47906E+00 -0.10392E+01  0.69432E-01
  0.47906E+00 -0.10392E+01  0.33001E+00
  0.47906E+00 -0.10392E+01  0.66999E+00
  0.47906E+00 -0.10392E+01  0.93057E+00
  0.47872E+00 -0.10392E+01  0.69432E-01
  0.47872E+00 -0.10392E+01  0.33001E+00
  0.47872E+00 -0.10392E+01  0.66999E+00
  0.47872E+00 -0.10392E+01  0.93057E+00
  0.47828E+00 -0.10392E+01  0.69432E-01
  0.47828E+00 -0.10392E+01  0.33001E+00
  0.47828E+00 -0.10392E+01  0.66999E+00
  0.47828E+00 -0.10392E+01  0.93057E+00
 -0.34713E+00 -0.78527E+00  0.69432E-01
 -0.34713E+00 -0.78527E+00  0.33001E+00
 -0.34713E+00 -0.78527E+00  0.66999E+00
 -0.34713E+00 -0.78527E+00  0.93057E+00
 -0.38214E+00 -0.76151E+00  0.69432E-01
 -0.38214E+00 -0.76151E+00  0.33001E+00
 -0.38214E+00 -0.76151E+00  0.66999E+00
 -0.38214E+00 -0.76151E+00  0.93057E+00
 -0.42051E+00 -0.73379E+00  0.69432E-01
 -0.42051E+00 -0.73379E+00  0.33001E+00
 -0.42051E+00 -0.73379E+00  0.66999E+00
 -0.42051E+00 -0.73379E+00  0.93057E+00
 -0.44008E+00 -0.71901E+00  0.69432E-01
 -0.44008E+00 -0.71901E+00  0.33001E+00
 -0.44008E+00 -0.71901E+00  0.66999E+00
 -0.44008E+00 -0.71901E+00  0.93057E+00
 -0.30643E+00 -0.81119E+00  0.69432E-01
 -0.30643E+00 -0.81119E+00  0.33001E+00
 -0.30643E+00 -0.81119E+00  0.66999E+00
 -0.30643E+00 -0.81119E+00  0.93057E+00
 -0.34201E+00 -0.78864E+00  0.69432E-01
 -0.34201E+00 -0.78864E+00  0.33001E+00
 -0.34201E+00 -0.78864E+00  0.66999E+00
 -0.34201E+00 -0.78864E+00  0.93057E+00
 -0.38095E+00 -0.76234E+00  0.69432E-01
 -0.38095E+00 -0.76234E+00  0.33001E+00
 -0.38095E+00 -0.76234E+00  0.66999E+00
 -0.38095E+00 -0.76234E+00  0.93057E+00
 -0.39101E+00 -0.75527E+00  0.69432E-01
 -0.39101E+00 -0.75527E+00  0.33001E+00
 -0.39101E+00 -0.75527E+00  0.66999E+00
 -0.39101E+00 -0.75527E+00  0.93057E+00
 -0.25941E+00 -0.83898E+00  0.69432E-01
 -0.25941E+00 -0.83898E+00  0.33001E+00
 -0.25941E+00 -0.83898E+00  0.66999E+00
 -0.25941E+00 -0.83898E+00  0.93057E+00
 -0.26861E+00 -0.83373E+00  0.69432E-01
 -0.26861E+00 -0.83373E+00  0.33001E+00
 -0.26861E+00 -0.83373E+00  0.66999E+00
 -0.26861E+00 -0.83373E+00  0.93057E+00
 -0.30810E+00 -0.81017E+00  0.69432E-01
 -0.30810E+00 -0.81017E+00  0.33001E+00
 -0.30810E+00 -0.81017E+00  0.66999E+00
 -0.30810E+00 -0.81017E+00  0.93057E+00
 -0.21578E+00 -0.86281E+00  0.69432E-01
 -0.21578E+00 -0.86281E+00  0.33001E+00
 -0.21578E+00 -0.86281E+00  0.66999E+00
 -0.21578E+00 -0.86281E+00  0.93057E+00
 -0.22461E+00 -0.85813E+00  0.69432E-01
 -0.22461E+00 -0.85813E+00  0.33001E+00
 -0.22461E+00 -0.85813E+00  0.66999E+00
 -0.22461E+00 -0.85813E+00  0.93057E+00
 -0.26449E+00 -0.83608E+00  0.69432E-01
 -0.26449E+00 -0.83608E+00  0.33001E+00
 -0.26449E+00 -0.83608E+00  0.66999E+00
 -0.26449E+00 -0.83608E+00  0.93057E+00
 -0.17888E+00 -0.88155E+00  0.69432E-01
 -0.17888E+00 -0.88155E+00  0.33001E+00
 -0.17888E+00 -0.88155E+00  0.66999E+00
 -0.17888E+00 -0.88155E+00  0.93057E+00
 -0.21572E+00 -0.86284E+00  0.69432E-01
 -0.21572E+00 -0.86284E+00  0.33001E+00
 -0.21572E+00 -0.86284E+00  0.66999E+00
 -0.21572E+00 -0.86284E+00  0.93057E+00
 -0.13293E+00 -0.90320E+00  0.69432E-01
 -0.13293E+00 -0.90320E+00  0.33001E+00
 -0.13293E+00 -0.90320E+00  0.66999E+00
 -0.13293E+00 -0.90320E+00  0.93057E+00
 -0.16483E+00 -0.88841E+00  0.69432E-01
 -0.16483E+00 -0.88841E+00  0.33001E+00
 -0.16483E+00 -0.88841E+00  0.66999E+00
 -0.16483E+00 -0.88841E+00  0.93057E+00
 -0.50508E-01 -0.93755E+00  0.69432E-01
 -0.50508E-01 -0.93755E+00  0.33001E+00
 -0.50508E-01 -0.93755E+00  0.66999E+00
 -0.50508E-01 -0.93755E+00  0.93057E+00
 -0.87778E-01 -0.92270E+00  0.69432E-01
 -0.87778E-01 -0.92270E+00  0.33001E+00
 -0.87778E-01 -0.92270E+00  0.66999E+00
 -0.87778E-01 -0.92270E+00  0.93057E+00
 -0.14771E-02 -0.95536E+00  0.69432E-01
 -0.14771E-02 -0.95536E+00  0.33001E+00
 -0.14771E-02 -0.95536E+00  0.66999E+00
 -0.14771E-02 -0.95536E+00  0.93057E+00
 -0.46148E+00 -0.70213E+00  0.69432E-01
 -0.46148E+00 -0.70213E+00  0.33001E+00
 -0.46148E+00 -0.70213E+00  0.66999E+00
 -0.46148E+00 -0.70213E+00  0.93057E+00
 -0.49697E+00 -0.67287E+00  0.69432E-01
 -0.49697E+00 -0.67287E+00  0.33001E+00
 -0.49697E+00 -0.67287E+00  0.66999E+00
 -0.49697E+00 -0.67287E+00  0.93057E+00
 -0.42257E+00 -0.73224E+00  0.69432E-01
 -0.42257E+00 -0.73224E+00  0.33001E+00
 -0.42257E+00 -0.73224E+00  0.66999E+00
 -0.42257E+00 -0.73224E+00  0.93057E+00
  0.87189E-02 -0.95886E+00  0.69432E-01
  0.87189E-02 -0.95886E+00  0.33001E+00
  0.87189E-02 -0.95886E+00  0.66999E+00
  0.87189E-02 -0.95886E+00  0.93057E+00
  0.90180E-01 -0.98379E+00  0.69432E-01
  0.90180E-01 -0.98379E+00  0.33001E+00
  0.90180E-01 -0.98379E+00  0.66999E+00
  0.90180E-01 -0.98379E+00  0.93057E+00
 -0.85688E+00 -0.22698E+00  0.69432E-01
 -0.85688E+00 -0.22698E+00  0.33001E+00
 -0.85688E+00 -0.22698E+00  0.66999E+00
 -0.85688E+00 -0.22698E+00  0.93057E+00
 -0.87933E+00 -0.18341E+00  0.69432E-01
 -0.87933E+00 -0.18341E+00  0.33001E+00
 -0.87933E+00 -0.18341E+00  0.66999E+00
 -0.87933E+00 -0.18341E+00  0.93057E+00
 -0.88375E+00 -0.17438E+00  0.69432E-01
 -0.88375E+00 -0.17438E+00  0.33001E+00
 -0.88375E+00 -0.17438E+00  0.66999E+00
 -0.88375E+00 -0.17438E+00  0.93057E+00
 -0.90512E+00 -0.12866E+00  0.69432E-01
 -0.90512E+00 -0.12866E+00  0.33001E+00
 -0.90512E+00 -0.12866E+00  0.66999E+00
 -0.90512E+00 -0.12866E+00  0.93057E+00
 -0.93897E+00 -0.46741E-01  0.69432E-01
 -0.93897E+00 -0.46741E-01  0.33001E+00
 -0.93897E+00 -0.46741E-01  0.66999E+00
 -0.93897E+00 -0.46741E-01  0.93057E+00
 -0.95656E+00  0.20138E-02  0.69432E-01
 -0.95656E+00  0.20138E-02  0.33001E+00
 -0.95656E+00  0.20138E-02  0.66999E+00
 -0.95656E+00  0.20138E-02  0.93057E+00
 -0.78527E+00 -0.34713E+00  0.69432E-01
 -0.78527E+00 -0.34713E+00  0.33001E+00
 -0.78527E+00 -0.34713E+00  0.66999E+00
 -0.78527E+00 -0.34713E+00  0.93057E+00
 -0.81119E+00 -0.30643E+00  0.69432E-01
 -0.81119E+00 -0.30643E+00  0.33001E+00
 -0.81119E+00 -0.30643E+00  0.66999E+00
 -0.81119E+00 -0.30643E+00  0.93057E+00
 -0.83898E+00 -0.25941E+00  0.69432E-01
 -0.83898E+00 -0.25941E+00  0.33001E+00
 -0.83898E+00 -0.25941E+00  0.66999E+00
 -0.83898E+00 -0.25941E+00  0.93057E+00
 -0.86281E+00 -0.21578E+00  0.69432E-01
 -0.86281E+00 -0.21578E+00  0.33001E+00
 -0.86281E+00 -0.21578E+00  0.66999E+00
 -0.86281E+00 -0.21578E+00  0.93057E+00
 -0.76151E+00 -0.38214E+00  0.69432E-01
 -0.76151E+00 -0.38214E+00  0.33001E+00
 -0.76151E+00 -0.38214E+00  0.66999E+00
 -0.76151E+00 -0.38214E+00  0.93057E+00
 -0.78864E+00 -0.34201E+00  0.69432E-01
 -0.78864E+00 -0.34201E+00  0.33001E+00
 -0.78864E+00 -0.34201E+00  0.66999E+00
 -0.78864E+00 -0.34201E+00  0.93057E+00
 -0.83373E+00 -0.26861E+00  0.69432E-01
 -0.83373E+00 -0.26861E+00  0.33001E+00
 -0.83373E+00 -0.26861E+00  0.66999E+00
 -0.83373E+00 -0.26861E+00  0.93057E+00
 -0.85813E+00 -0.22461E+00  0.69432E-01
 -0.85813E+00 -0.22461E+00  0.33001E+00
 -0.85813E+00 -0.22461E+00  0.66999E+00
 -0.85813E+00 -0.22461E+00  0.93057E+00
 -0.73379E+00 -0.42051E+00  0.69432E-01
 -0.73379E+00 -0.42051E+00  0.33001E+00
 -0.73379E+00 -0.42051E+00  0.66999E+00
 -0.73379E+00 -0.42051E+00  0.93057E+00
 -0.76234E+00 -0.38095E+00  0.69432E-01
 -0.76234E+00 -0.38095E+00  0.33001E+00
 -0.76234E+00 -0.38095E+00  0.66999E+00
 -0.76234E+00 -0.38095E+00  0.93057E+00
 -0.81017E+00 -0.30810E+00  0.69432E-01
 -0.81017E+00 -0.30810E+00  0.33001E+00
 -0.81017E+00 -0.30810E+00  0.66999E+00
 -0.81017E+00 -0.30810E+00  0.93057E+00
 -0.83608E+00 -0.26449E+00  0.69432E-01
 -0.83608E+00 -0.26449E+00  0.33001E+00
 -0.83608E+00 -0.26449E+00  0.66999E+00
 -0.83608E+00 -0.26449E+00  0.93057E+00
 -0.71901E+00 -0.44008E+00  0.69432E-01
 -0.71901E+00 -0.44008E+00  0.33001E+00
 -0.71901E+00 -0.44008E+00  0.66999E+00
 -0.71901E+00 -0.44008E+00  0.93057E+00
 -0.75527E+00 -0.39101E+00  0.69432E-01
 -0.75527E+00 -0.39101E+00  0.33001E+00
 -0.75527E+00 -0.39101E+00  0.66999E+00
 -0.75527E+00 -0.39101E+00  0.93057E+00
 -0.70213E+00 -0.46148E+00  0.69432E-01
 -0.70213E+00 -0.46148E+00  0.33001E+00
 -0.70213E+00 -0.46148E+00  0.66999E+00
 -0.70213E+00 -0.46148E+00  0.93057E+00
 -0.73224E+00 -0.42257E+00  0.69432E-01
 -0.73224E+00 -0.42257E+00  0.33001E+00
 -0.73224E+00 -0.42257E+00  0.66999E+00
 -0.73224E+00 -0.42257E+00  0.93057E+00
 -0.67287E+00 -0.49697E+00  0.69432E-01
 -0.67287E+00 -0.49697E+00  0.33001E+00
 -0.67287E+00 -0.49697E+00  0.66999E+00
 -0.67287E+00 -0.49697E+00  0.93057E+00
 -0.88155E+00 -0.17888E+00  0.69432E-01
 -0.88155E+00 -0.17888E+00  0.33001E+00
 -0.88155E+00 -0.17888E+00  0.66999E+00
 -0.88155E+00 -0.17888E+00  0.93057E+00
 -0.90320E+00 -0.13293E+00  0.69432E-01
 -0.90320E+00 -0.13293E+00  0.33001E+00
 -0.90320E+00 -0.13293E+00  0.66999E+00
 -0.90320E+00 -0.13293E+00  0.93057E+00
 -0.93755E+00 -0.50508E-01  0.69432E-01
 -0.93755E+00 -0.50508E-01  0.33001E+00
 -0.93755E+00 -0.50508E-01  0.66999E+00
 -0.93755E+00 -0.50508E-01  0.93057E+00
 -0.95536E+00 -0.14771E-02  0.69432E-01
 -0.95536E+00 -0.14771E-02  0.33001E+00
 -0.95536E+00 -0.14771E-02  0.66999E+00
 -0.95536E+00 -0.14771E-02  0.93057E+00
 -0.86284E+00 -0.21572E+00  0.69432E-01
 -0.86284E+00 -0.21572E+00  0.33001E+00
 -0.86284E+00 -0.21572E+00  0.66999E+00
 -0.86284E+00 -0.21572E+00  0.93057E+00
 -0.88841E+00 -0.16483E+00  0.69432E-01
 -0.88841E+00 -0.16483E+00  0.33001E+00
 -0.88841E+00 -0.16483E+00  0.66999E+00
 -0.88841E+00 -0.16483E+00  0.93057E+00
 -0.92270E+00 -0.87778E-01  0.69432E-01
 -0.92270E+00 -0.87778E-01  0.33001E+00
 -0.92270E+00 -0.87778E-01  0.66999E+00