TITLE = "Points"
VARIABLES = "x","y","z"
ZONE I=2362,J=2,K=1, DATAPACKING=POINT
 -0.86055E+01 -0.54807E+01  0.69432E-01
 -0.86055E+01 -0.54807E+01  0.33001E+00
 -0.86055E+01 -0.54807E+01  0.66999E+00
 -0.86055E+01 -0.54807E+01  0.93057E+00
 -0.89622E+01 -0.48986E+01  0.69432E-01
 -0.89622E+01 -0.48986E+01  0.33001E+00
 -0.89622E+01 -0.48986E+01  0.66999E+00
 -0.89622E+01 -0.48986E+01  0.93057E+00
 -0.92178E+01 -0.44238E+01  0.69432E-01
 -0.92178E+01 -0.44238E+01  0.33001E+00
 -0.92178E+01 -0.44238E+01  0.66999E+00
 -0.92178E+01 -0.44238E+01  0.93057E+00
 -0.93137E+01 -0.42296E+01  0.69432E-01
 -0.93137E+01 -0.42296E+01  0.33001E+00
 -0.93137E+01 -0.42296E+01  0.66999E+00
 -0.93137E+01 -0.42296E+01  0.93057E+00
 -0.66424E+01 -0.77259E+01  0.69432E-01
 -0.66424E+01 -0.77259E+01  0.33001E+00
 -0.66424E+01 -0.77259E+01  0.66999E+00
 -0.66424E+01 -0.77259E+01  0.93057E+00
 -0.65696E+01 -0.77884E+01  0.69432E-01
 -0.65696E+01 -0.77884E+01  0.33001E+00
 -0.65696E+01 -0.77884E+01  0.66999E+00
 -0.65696E+01 -0.77884E+01  0.93057E+00
 -0.63146E+01 -0.79994E+01  0.69432E-01
 -0.63146E+01 -0.79994E+01  0.33001E+00
 -0.63146E+01 -0.79994E+01  0.66999E+00
 -0.63146E+01 -0.79994E+01  0.93057E+00
 -0.60460E+01 -0.82079E+01  0.69432E-01
 -0.60460E+01 -0.82079E+01  0.33001E+00
 -0.60460E+01 -0.82079E+01  0.66999E+00
 -0.60460E+01 -0.82079E+01  0.93057E+00
 -0.57658E+01 -0.84116E+01  0.69432E-01
 -0.57658E+01 -0.84116E+01  0.33001E+00
 -0.57658E+01 -0.84116E+01  0.66999E+00
 -0.57658E+01 -0.84116E+01  0.93057E+00
 -0.54833E+01 -0.86037E+01  0.69432E-01
 -0.54833E+01 -0.86037E+01  0.33001E+00
 -0.54833E+01 -0.86037E+01  0.66999E+00
 -0.54833E+01 -0.86037E+01  0.93057E+00
 -0.85471E+01 -0.55686E+01  0.69432E-01
 -0.85471E+01 -0.55686E+01  0.33001E+00
 -0.85471E+01 -0.55686E+01  0.66999E+00
 -0.85471E+01 -0.55686E+01  0.93057E+00
 -0.88529E+01 -0.50859E+01  0.69432E-01
 -0.88529E+01 -0.50859E+01  0.33001E+00
 -0.88529E+01 -0.50859E+01  0.66999E+00
 -0.88529E+01 -0.50859E+01  0.93057E+00
 -0.91275E+01 -0.45979E+01  0.69432E-01
 -0.91275E+01 -0.45979E+01  0.33001E+00
 -0.91275E+01 -0.45979E+01  0.66999E+00
 -0.91275E+01 -0.45979E+01  0.93057E+00
 -0.84106E+01 -0.57673E+01  0.69432E-01
 -0.84106E+01 -0.57673E+01  0.33001E+00
 -0.84106E+01 -0.57673E+01  0.66999E+00
 -0.84106E+01 -0.57673E+01  0.93057E+00
 -0.86767E+01 -0.53709E+01  0.69432E-01
 -0.86767E+01 -0.53709E+01  0.33001E+00
 -0.86767E+01 -0.53709E+01  0.66999E+00
 -0.86767E+01 -0.53709E+01  0.93057E+00
 -0.89603E+01 -0.49019E+01  0.69432E-01
 -0.89603E+01 -0.49019E+01  0.33001E+00
 -0.89603E+01 -0.49019E+01  0.66999E+00
 -0.89603E+01 -0.49019E+01  0.93057E+00
 -0.82094E+01 -0.60440E+01  0.69432E-01
 -0.82094E+01 -0.60440E+01  0.33001E+00
 -0.82094E+01 -0.60440E+01  0.66999E+00
 -0.82094E+01 -0.60440E+01  0.93057E+00
 -0.84145E+01 -0.57617E+01  0.69432E-01
 -0.84145E+01 -0.57617E+01  0.33001E+00
 -0.84145E+01 -0.57617E+01  0.66999E+00
 -0.84145E+01 -0.57617E+01  0.93057E+00
 -0.86072E+01 -0.54780E+01  0.69432E-01
 -0.86072E+01 -0.54780E+01  0.33001E+00
 -0.86072E+01 -0.54780E+01  0.66999E+00
 -0.86072E+01 -0.54780E+01  0.93057E+00
 -0.80026E+01 -0.63105E+01  0.69432E-01
 -0.80026E+01 -0.63105E+01  0.33001E+00
 -0.80026E+01 -0.63105E+01  0.66999E+00
 -0.80026E+01 -0.63105E+01  0.93057E+00
 -0.82127E+01 -0.60397E+01  0.69432E-01
 -0.82127E+01 -0.60397E+01  0.33001E+00
 -0.82127E+01 -0.60397E+01  0.66999E+00
 -0.82127E+01 -0.60397E+01  0.93057E+00
 -0.84115E+01 -0.57661E+01  0.69432E-01
 -0.84115E+01 -0.57661E+01  0.33001E+00
 -0.84115E+01 -0.57661E+01  0.66999E+00
 -0.84115E+01 -0.57661E+01  0.93057E+00
 -0.79973E+01 -0.63172E+01  0.69432E-01
 -0.79973E+01 -0.63172E+01  0.33001E+00
 -0.79973E+01 -0.63172E+01  0.66999E+00
 -0.79973E+01 -0.63172E+01  0.93057E+00
 -0.81944E+01 -0.60640E+01  0.69432E-01
 -0.81944E+01 -0.60640E+01  0.33001E+00
 -0.81944E+01 -0.60640E+01  0.66999E+00
 -0.81944E+01 -0.60640E+01  0.93057E+00
 -0.82453E+01 -0.59960E+01  0.69432E-01
 -0.82453E+01 -0.59960E+01  0.33001E+00
 -0.82453E+01 -0.59960E+01  0.66999E+00
 -0.82453E+01 -0.59960E+01  0.93057E+00
 -0.77849E+01 -0.65738E+01  0.69432E-01
 -0.77849E+01 -0.65738E+01  0.33001E+00
 -0.77849E+01 -0.65738E+01  0.66999E+00
 -0.77849E+01 -0.65738E+01  0.93057E+00
 -0.80025E+01 -0.63107E+01  0.69432E-01
 -0.80025E+01 -0.63107E+01  0.33001E+00
 -0.80025E+01 -0.63107E+01  0.66999E+00
 -0.80025E+01 -0.63107E+01  0.93057E+00
 -0.82093E+01 -0.60442E+01  0.69432E-01
 -0.82093E+01 -0.60442E+01  0.33001E+00
 -0.82093E+01 -0.60442E+01  0.66999E+00
 -0.82093E+01 -0.60442E+01  0.93057E+00
 -0.75612E+01 -0.68277E+01  0.69432E-01
 -0.75612E+01 -0.68277E+01  0.33001E+00
 -0.75612E+01 -0.68277E+01  0.66999E+00
 -0.75612E+01 -0.68277E+01  0.93057E+00
 -0.77869E+01 -0.65714E+01  0.69432E-01
 -0.77869E+01 -0.65714E+01  0.33001E+00
 -0.77869E+01 -0.65714E+01  0.66999E+00
 -0.77869E+01 -0.65714E+01  0.93057E+00
 -0.80020E+01 -0.63113E+01  0.69432E-01
 -0.80020E+01 -0.63113E+01  0.33001E+00
 -0.80020E+01 -0.63113E+01  0.66999E+00
 -0.80020E+01 -0.63113E+01  0.93057E+00
 -0.75104E+01 -0.68832E+01  0.69432E-01
 -0.75104E+01 -0.68832E+01  0.33001E+00
 -0.75104E+01 -0.68832E+01  0.66999E+00
 -0.75104E+01 -0.68832E+01  0.93057E+00
 -0.77259E+01 -0.66424E+01  0.69432E-01
 -0.77259E+01 -0.66424E+01  0.33001E+00
 -0.77259E+01 -0.66424E+01  0.66999E+00
 -0.77259E+01 -0.66424E+01  0.93057E+00
 -0.77884E+01 -0.65696E+01  0.69432E-01
 -0.77884E+01 -0.65696E+01  0.33001E+00
 -0.77884E+01 -0.65696E+01  0.66999E+00
 -0.77884E+01 -0.65696E+01  0.93057E+00
 -0.84123E+01 -0.57649E+01  0.69432E-01
 -0.84123E+01 -0.57649E+01  0.33001E+00
 -0.84123E+01 -0.57649E+01  0.66999E+00
 -0.84123E+01 -0.57649E+01  0.93057E+00
 -0.86084E+01 -0.54762E+01  0.69432E-01
 -0.86084E+01 -0.54762E+01  0.33001E+00
 -0.86084E+01 -0.54762E+01  0.66999E+00
 -0.86084E+01 -0.54762E+01  0.93057E+00
 -0.89621E+01 -0.48988E+01  0.69432E-01
 -0.89621E+01 -0.48988E+01  0.33001E+00
 -0.89621E+01 -0.48988E+01  0.66999E+00
 -0.89621E+01 -0.48988E+01  0.93057E+00
 -0.91297E+01 -0.45938E+01  0.69432E-01
 -0.91297E+01 -0.45938E+01  0.33001E+00
 -0.91297E+01 -0.45938E+01  0.66999E+00
 -0.91297E+01 -0.45938E+01  0.93057E+00
 -0.82161E+01 -0.60350E+01  0.69432E-01
 -0.82161E+01 -0.60350E+01  0.33001E+00
 -0.82161E+01 -0.60350E+01  0.66999E+00
 -0.82161E+01 -0.60350E+01  0.93057E+00
 -0.85387E+01 -0.55812E+01  0.69432E-01
 -0.85387E+01 -0.55812E+01  0.33001E+00
 -0.85387E+01 -0.55812E+01  0.66999E+00
 -0.85387E+01 -0.55812E+01  0.93057E+00
 -0.87898E+01 -0.51901E+01  0.69432E-01
 -0.87898E+01 -0.51901E+01  0.33001E+00
 -0.87898E+01 -0.51901E+01  0.66999E+00
 -0.87898E+01 -0.51901E+01  0.93057E+00
 -0.89660E+01 -0.48919E+01  0.69432E-01
 -0.89660E+01 -0.48919E+01  0.33001E+00
 -0.89660E+01 -0.48919E+01  0.66999E+00
 -0.89660E+01 -0.48919E+01  0.93057E+00
 -0.81009E+01 -0.61861E+01  0.69432E-01
 -0.81009E+01 -0.61861E+01  0.33001E+00
 -0.81009E+01 -0.61861E+01  0.66999E+00
 -0.81009E+01 -0.61861E+01  0.93057E+00
 -0.83350E+01 -0.58735E+01  0.69432E-01
 -0.83350E+01 -0.58735E+01  0.33001E+00
 -0.83350E+01 -0.58735E+01  0.66999E+00
 -0.83350E+01 -0.58735E+01  0.93057E+00
 -0.86042E+01 -0.54826E+01  0.69432E-01
 -0.86042E+01 -0.54826E+01  0.33001E+00
 -0.86042E+01 -0.54826E+01  0.66999E+00
 -0.86042E+01 -0.54826E+01  0.93057E+00
 -0.87885E+01 -0.51922E+01  0.69432E-01
 -0.87885E+01 -0.51922E+01  0.33001E+00
 -0.87885E+01 -0.51922E+01  0.66999E+00
 -0.87885E+01 -0.51922E+01  0.93057E+00
 -0.79994E+01 -0.63146E+01  0.69432E-01
 -0.79994E+01 -0.63146E+01  0.33001E+00
 -0.79994E+01 -0.63146E+01  0.66999E+00
 -0.79994E+01 -0.63146E+01  0.93057E+00
 -0.82079E+01 -0.60460E+01  0.69432E-01
 -0.82079E+01 -0.60460E+01  0.33001E+00
 -0.82079E+01 -0.60460E+01  0.66999E+00
 -0.82079E+01 -0.60460E+01  0.93057E+00
 -0.84116E+01 -0.57658E+01  0.69432E-01
 -0.84116E+01 -0.57658E+01  0.33001E+00
 -0.84116E+01 -0.57658E+01  0.66999E+00
 -0.84116E+01 -0.57658E+01  0.93057E+00
 -0.86037E+01 -0.54833E+01  0.69432E-01
 -0.86037E+01 -0.54833E+01  0.33001E+00
 -0.86037E+01 -0.54833E+01  0.66999E+00
 -0.86037E+01 -0.54833E+01  0.93057E+00
 -0.72032E+01 -0.72032E+01  0.69432E-01
 -0.72032E+01 -0.72032E+01  0.33001E+00
 -0.72032E+01 -0.72032E+01  0.66999E+00
 -0.72032E+01 -0.72032E+01  0.93057E+00
 -0.73264E+01 -0.70780E+01  0.69432E-01
 -0.73264E+01 -0.70780E+01  0.33001E+00
 -0.73264E+01 -0.70780E+01  0.66999E+00
 -0.73264E+01 -0.70780E+01  0.93057E+00
 -0.75602E+01 -0.68288E+01  0.69432E-01
 -0.75602E+01 -0.68288E+01  0.33001E+00
 -0.75602E+01 -0.68288E+01  0.66999E+00
 -0.75602E+01 -0.68288E+01  0.93057E+00
 -0.77836E+01 -0.65752E+01  0.69432E-01
 -0.77836E+01 -0.65752E+01  0.33001E+00
 -0.77836E+01 -0.65752E+01  0.66999E+00
 -0.77836E+01 -0.65752E+01  0.93057E+00
 -0.70780E+01 -0.73264E+01  0.69432E-01
 -0.70780E+01 -0.73264E+01  0.33001E+00
 -0.70780E+01 -0.73264E+01  0.66999E+00
 -0.70780E+01 -0.73264E+01  0.93057E+00
 -0.72032E+01 -0.72032E+01  0.69432E-01
 -0.72032E+01 -0.72032E+01  0.33001E+00
 -0.72032E+01 -0.72032E+01  0.66999E+00
 -0.72032E+01 -0.72032E+01  0.93057E+00
 -0.74243E+01 -0.69756E+01  0.69432E-01
 -0.74243E+01 -0.69756E+01  0.33001E+00
 -0.74243E+01 -0.69756E+01  0.66999E+00
 -0.74243E+01 -0.69756E+01  0.93057E+00
 -0.75612E+01 -0.68277E+01  0.69432E-01
 -0.75612E+01 -0.68277E+01  0.33001E+00
 -0.75612E+01 -0.68277E+01  0.66999E+00
 -0.75612E+01 -0.68277E+01  0.93057E+00
 -0.68288E+01 -0.75602E+01  0.69432E-01
 -0.68288E+01 -0.75602E+01  0.33001E+00
 -0.68288E+01 -0.75602E+01  0.66999E+00
 -0.68288E+01 -0.75602E+01  0.93057E+00
 -0.69756E+01 -0.74243E+01  0.69432E-01
 -0.69756E+01 -0.74243E+01  0.33001E+00
 -0.69756E+01 -0.74243E+01  0.66999E+00
 -0.69756E+01 -0.74243E+01  0.93057E+00
 -0.72032E+01 -0.72032E+01  0.69432E-01
 -0.72032E+01 -0.72032E+01  0.33001E+00
 -0.72032E+01 -0.72032E+01  0.66999E+00
 -0.72032E+01 -0.72032E+01  0.93057E+00
 -0.73271E+01 -0.70772E+01  0.69432E-01
 -0.73271E+01 -0.70772E+01  0.33001E+00
 -0.73271E+01 -0.70772E+01  0.66999E+00
 -0.73271E+01 -0.70772E+01  0.93057E+00
 -0.65752E+01 -0.77836E+01  0.69432E-01
 -0.65752E+01 -0.77836E+01  0.33001E+00
 -0.65752E+01 -0.77836E+01  0.66999E+00
 -0.65752E+01 -0.77836E+01  0.93057E+00
 -0.68277E+01 -0.75612E+01  0.69432E-01
 -0.68277E+01 -0.75612E+01  0.33001E+00
 -0.68277E+01 -0.75612E+01  0.66999E+00
 -0.68277E+01 -0.75612E+01  0.93057E+00
 -0.70772E+01 -0.73271E+01  0.69432E-01
 -0.70772E+01 -0.73271E+01  0.33001E+00
 -0.70772E+01 -0.73271E+01  0.66999E+00
 -0.70772E+01 -0.73271E+01  0.93057E+00
 -0.72032E+01 -0.72032E+01  0.69432E-01
 -0.72032E+01 -0.72032E+01  0.33001E+00
 -0.72032E+01 -0.72032E+01  0.66999E+00
 -0.72032E+01 -0.72032E+01  0.93057E+00
 -0.65367E+01 -0.78165E+01  0.69432E-01
 -0.65367E+01 -0.78165E+01  0.33001E+00
 -0.65367E+01 -0.78165E+01  0.66999E+00
 -0.65367E+01 -0.78165E+01  0.93057E+00
 -0.65792E+01 -0.77802E+01  0.69432E-01
 -0.65792E+01 -0.77802E+01  0.33001E+00
 -0.65792E+01 -0.77802E+01  0.66999E+00
 -0.65792E+01 -0.77802E+01  0.93057E+00
 -0.68354E+01 -0.75542E+01  0.69432E-01
 -0.68354E+01 -0.75542E+01  0.33001E+00
 -0.68354E+01 -0.75542E+01  0.66999E+00
 -0.68354E+01 -0.75542E+01  0.93057E+00
 -0.70820E+01 -0.73225E+01  0.69432E-01
 -0.70820E+01 -0.73225E+01  0.33001E+00
 -0.70820E+01 -0.73225E+01  0.66999E+00
 -0.70820E+01 -0.73225E+01  0.93057E+00
 -0.63073E+01 -0.80052E+01  0.69432E-01
 -0.63073E+01 -0.80052E+01  0.33001E+00
 -0.63073E+01 -0.80052E+01  0.66999E+00
 -0.63073E+01 -0.80052E+01  0.93057E+00
 -0.63417E+01 -0.79775E+01  0.69432E-01
 -0.63417E+01 -0.79775E+01  0.33001E+00
 -0.63417E+01 -0.79775E+01  0.66999E+00
 -0.63417E+01 -0.79775E+01  0.93057E+00
 -0.65806E+01 -0.77790E+01  0.69432E-01
 -0.65806E+01 -0.77790E+01  0.33001E+00
 -0.65806E+01 -0.77790E+01  0.66999E+00
 -0.65806E+01 -0.77790E+01  0.93057E+00
 -0.68343E+01 -0.75552E+01  0.69432E-01
 -0.68343E+01 -0.75552E+01  0.33001E+00
 -0.68343E+01 -0.75552E+01  0.66999E+00
 -0.68343E+01 -0.75552E+01  0.93057E+00
 -0.60183E+01 -0.82287E+01  0.69432E-01
 -0.60183E+01 -0.82287E+01  0.33001E+00
 -0.60183E+01 -0.82287E+01  0.66999E+00
 -0.60183E+01 -0.82287E+01  0.93057E+00
 -0.60448E+01 -0.82088E+01  0.69432E-01
 -0.60448E+01 -0.82088E+01  0.33001E+00
 -0.60448E+01 -0.82088E+01  0.66999E+00
 -0.60448E+01 -0.82088E+01  0.93057E+00
 -0.63143E+01 -0.79996E+01  0.69432E-01
 -0.63143E+01 -0.79996E+01  0.33001E+00
 -0.63143E+01 -0.79996E+01  0.66999E+00
 -0.63143E+01 -0.79996E+01  0.93057E+00
 -0.65751E+01 -0.77838E+01  0.69432E-01
 -0.65751E+01 -0.77838E+01  0.33001E+00
 -0.65751E+01 -0.77838E+01  0.66999E+00
 -0.65751E+01 -0.77838E+01  0.93057E+00
 -0.57587E+01 -0.84167E+01  0.69432E-01
 -0.57587E+01 -0.84167E+01  0.33001E+00
 -0.57587E+01 -0.84167E+01  0.66999E+00
 -0.57587E+01 -0.84167E+01  0.93057E+00
 -0.57687E+01 -0.84096E+01  0.69432E-01
 -0.57687E+01 -0.84096E+01  0.33001E+00
 -0.57687E+01 -0.84096E+01  0.66999E+00
 -0.57687E+01 -0.84096E+01  0.93057E+00
 -0.60445E+01 -0.82091E+01  0.69432E-01
 -0.60445E+01 -0.82091E+01  0.33001E+00
 -0.60445E+01 -0.82091E+01  0.66999E+00
 -0.60445E+01 -0.82091E+01  0.93057E+00
 -0.63118E+01 -0.80016E+01  0.69432E-01
 -0.63118E+01 -0.80016E+01  0.33001E+00
 -0.63118E+01 -0.80016E+01  0.66999E+00
 -0.63118E+01 -0.80016E+01  0.93057E+00
 -0.78165E+01 -0.65367E+01  0.69432E-01
 -0.78165E+01 -0.65367E+01  0.33001E+00
 -0.78165E+01 -0.65367E+01  0.66999E+00
 -0.78165E+01 -0.65367E+01  0.93057E+00
 -0.80052E+01 -0.63073E+01  0.69432E-01
 -0.80052E+01 -0.63073E+01  0.33001E+00
 -0.80052E+01 -0.63073E+01  0.66999E+00
 -0.80052E+01 -0.63073E+01  0.93057E+00
 -0.82287E+01 -0.60183E+01  0.69432E-01
 -0.82287E+01 -0.60183E+01  0.33001E+00
 -0.82287E+01 -0.60183E+01  0.66999E+00
 -0.82287E+01 -0.60183E+01  0.93057E+00
 -0.84167E+01 -0.57587E+01  0.69432E-01
 -0.84167E+01 -0.57587E+01  0.33001E+00
 -0.84167E+01 -0.57587E+01  0.66999E+00
 -0.84167E+01 -0.57587E+01  0.93057E+00
 -0.77802E+01 -0.65792E+01  0.69432E-01
 -0.77802E+01 -0.65792E+01  0.33001E+00
 -0.77802E+01 -0.65792E+01  0.66999E+00
 -0.77802E+01 -0.65792E+01  0.93057E+00
 -0.79775E+01 -0.63417E+01  0.69432E-01
 -0.79775E+01 -0.63417E+01  0.33001E+00
 -0.79775E+01 -0.63417E+01  0.66999E+00
 -0.79775E+01 -0.63417E+01  0.93057E+00
 -0.82088E+01 -0.60448E+01  0.69432E-01
 -0.82088E+01 -0.60448E+01  0.33001E+00
 -0.82088E+01 -0.60448E+01  0.66999E+00
 -0.82088E+01 -0.60448E+01  0.93057E+00
 -0.84096E+01 -0.57687E+01  0.69432E-01
 -0.84096E+01 -0.57687E+01  0.33001E+00
 -0.84096E+01 -0.57687E+01  0.66999E+00
 -0.84096E+01 -0.57687E+01  0.93057E+00
 -0.75542E+01 -0.68354E+01  0.69432E-01
 -0.75542E+01 -0.68354E+01  0.33001E+00
 -0.75542E+01 -0.68354E+01  0.66999E+00
 -0.75542E+01 -0.68354E+01  0.93057E+00
 -0.77790E+01 -0.65806E+01  0.69432E-01
 -0.77790E+01 -0.65806E+01  0.33001E+00
 -0.77790E+01 -0.65806E+01  0.66999E+00
 -0.77790E+01 -0.65806E+01  0.93057E+00
 -0.79996E+01 -0.63143E+01  0.69432E-01
 -0.79996E+01 -0.63143E+01  0.33001E+00
 -0.79996E+01 -0.63143E+01  0.66999E+00
 -0.79996E+01 -0.63143E+01  0.93057E+00
 -0.82091E+01 -0.60445E+01  0.69432E-01
 -0.82091E+01 -0.60445E+01  0.33001E+00
 -0.82091E+01 -0.60445E+01  0.66999E+00
 -0.82091E+01 -0.60445E+01  0.93057E+00
 -0.73225E+01 -0.70820E+01  0.69432E-01
 -0.73225E+01 -0.70820E+01  0.33001E+00
 -0.73225E+01 -0.70820E+01  0.66999E+00
 -0.73225E+01 -0.70820E+01  0.93057E+00
 -0.75552E+01 -0.68343E+01  0.69432E-01
 -0.75552E+01 -0.68343E+01  0.33001E+00
 -0.75552E+01 -0.68343E+01  0.66999E+00
 -0.75552E+01 -0.68343E+01  0.93057E+00
 -0.77838E+01 -0.65751E+01  0.69432E-01
 -0.77838E+01 -0.65751E+01  0.33001E+00
 -0.77838E+01 -0.65751E+01  0.66999E+00
 -0.77838E+01 -0.65751E+01  0.93057E+00
 -0.80016E+01 -0.63118E+01  0.69432E-01
 -0.80016E+01 -0.63118E+01  0.33001E+00
 -0.80016E+01 -0.63118E+01  0.66999E+00
 -0.80016E+01 -0.63118E+01  0.93057E+00
 -0.72032E+01 -0.72032E+01  0.69432E-01
 -0.72032E+01 -0.72032E+01  0.33001E+00
 -0.72032E+01 -0.72032E+01  0.66999E+00
 -0.72032E+01 -0.72032E+01  0.93057E+00
 -0.73276E+01 -0.70767E+01  0.69432E-01
 -0.73276E+01 -0.70767E+01  0.33001E+00
 -0.73276E+01 -0.70767E+01  0.66999E+00
 -0.73276E+01 -0.70767E+01  0.93057E+00
 -0.77790E+01 -0.65807E+01  0.69432E-01
 -0.77790E+01 -0.65807E+01  0.33001E+00
 -0.77790E+01 -0.65807E+01  0.66999E+00
 -0.77790E+01 -0.65807E+01  0.93057E+00
 -0.79972E+01 -0.63173E+01  0.69432E-01
 -0.79972E+01 -0.63173E+01  0.33001E+00
 -0.79972E+01 -0.63173E+01  0.66999E+00
 -0.79972E+01 -0.63173E+01  0.93057E+00
 -0.70767E+01 -0.73276E+01  0.69432E-01
 -0.70767E+01 -0.73276E+01  0.33001E+00
 -0.70767E+01 -0.73276E+01  0.66999E+00
 -0.70767E+01 -0.73276E+01  0.93057E+00
 -0.72032E+01 -0.72032E+01  0.69432E-01
 -0.72032E+01 -0.72032E+01  0.33001E+00
 -0.72032E+01 -0.72032E+01  0.66999E+00
 -0.72032E+01 -0.72032E+01  0.93057E+00
 -0.75542E+01 -0.68354E+01  0.69431E-01
 -0.75542E+01 -0.68354E+01  0.33001E+00
 -0.75542E+01 -0.68354E+01  0.66999E+00
 -0.75542E+01 -0.68354E+01  0.93057E+00
 -0.77805E+01 -0.65789E+01  0.69432E-01
 -0.77805E+01 -0.65789E+01  0.33001E+00
 -0.77805E+01 -0.65789E+01  0.66999E+00
 -0.77805E+01 -0.65789E+01  0.93057E+00
 -0.65807E+01 -0.77790E+01  0.69432E-01
 -0.65807E+01 -0.77790E+01  0.33001E+00
 -0.65807E+01 -0.77790E+01  0.66999E+00
 -0.65807E+01 -0.77790E+01  0.93057E+00
 -0.68354E+01 -0.75542E+01  0.69432E-01
 -0.68354E+01 -0.75542E+01  0.33001E+00
 -0.68354E+01 -0.75542E+01  0.66999E+00
 -0.68354E+01 -0.75542E+01  0.93057E+00
 -0.72032E+01 -0.72032E+01  0.69432E-01
 -0.72032E+01 -0.72032E+01  0.33001E+00
 -0.72032E+01 -0.72032E+01  0.66999E+00
 -0.72032E+01 -0.72032E+01  0.93057E+00
 -0.63173E+01 -0.79972E+01  0.69432E-01
 -0.63173E+01 -0.79972E+01  0.33001E+00
 -0.63173E+01 -0.79972E+01  0.66999E+00
 -0.63173E+01 -0.79972E+01  0.93057E+00
 -0.65789E+01 -0.77805E+01  0.69432E-01
 -0.65789E+01 -0.77805E+01  0.33001E+00
 -0.65789E+01 -0.77805E+01  0.66999E+00
 -0.65789E+01 -0.77805E+01  0.93057E+00
 -0.54754E+01 -0.86089E+01  0.69432E-01
 -0.54754E+01 -0.86089E+01  0.33001E+00
 -0.54754E+01 -0.86089E+01  0.66999E+00
 -0.54754E+01 -0.86089E+01  0.93057E+00
 -0.48934E+01 -0.89652E+01  0.69432E-01
 -0.48934E+01 -0.89652E+01  0.33001E+00
 -0.51874E+01 -0.87915E+01  0.69432E-01
 -0.51874E+01 -0.87915E+01  0.33001E+00
 -0.51874E+01 -0.87915E+01  0.66999E+00
 -0.51874E+01 -0.87915E+01  0.93057E+00
 -0.45925E+01 -0.91304E+01  0.69432E-01
 -0.45925E+01 -0.91304E+01  0.33001E+00
 -0.45925E+01 -0.91304E+01  0.66999E+00
 -0.45925E+01 -0.91304E+01  0.93057E+00
 -0.46043E+01 -0.91241E+01  0.69432E-01
 -0.46043E+01 -0.91241E+01  0.33001E+00
 -0.46043E+01 -0.91241E+01  0.66999E+00
 -0.46043E+01 -0.91241E+01  0.93057E+00
 -0.39855E+01 -0.94276E+01  0.69432E-01
 -0.42898E+01 -0.92844E+01  0.69432E-01
 -0.42898E+01 -0.92844E+01  0.33001E+00
 -0.42898E+01 -0.92844E+01  0.66999E+00
 -0.42898E+01 -0.92844E+01  0.93057E+00
 -0.42989E+01 -0.92800E+01  0.69432E-01
 -0.42989E+01 -0.92800E+01  0.33001E+00
 -0.42989E+01 -0.92800E+01  0.66999E+00
 -0.42989E+01 -0.92800E+01  0.93057E+00
 -0.39775E+01 -0.94313E+01  0.69432E-01
 -0.39775E+01 -0.94313E+01  0.33001E+00
 -0.39775E+01 -0.94313E+01  0.66999E+00
 -0.39775E+01 -0.94313E+01  0.93057E+00
 -0.39879E+01 -0.94265E+01  0.69432E-01
 -0.39879E+01 -0.94265E+01  0.33001E+00
 -0.39879E+01 -0.94265E+01  0.66999E+00
 -0.39879E+01 -0.94265E+01  0.93057E+00
 -0.42898E+01 -0.92844E+01  0.69432E-01
 -0.42898E+01 -0.92844E+01  0.33001E+00
 -0.42898E+01 -0.92844E+01  0.66999E+00
 -0.42898E+01 -0.92844E+01  0.93057E+00
 -0.36624E+01 -0.95674E+01  0.69432E-01
 -0.36624E+01 -0.95674E+01  0.33001E+00
 -0.36624E+01 -0.95674E+01  0.66999E+00
 -0.36624E+01 -0.95674E+01  0.93057E+00
 -0.36723E+01 -0.95633E+01  0.69432E-01
 -0.36723E+01 -0.95633E+01  0.33001E+00
 -0.36723E+01 -0.95633E+01  0.66999E+00
 -0.36723E+01 -0.95633E+01  0.93057E+00
 -0.39782E+01 -0.94309E+01  0.69432E-01
 -0.39782E+01 -0.94309E+01  0.33001E+00
 -0.39782E+01 -0.94309E+01  0.66999E+00
 -0.39782E+01 -0.94309E+01  0.93057E+00
 -0.30321E+01 -0.98054E+01  0.69432E-01
 -0.30321E+01 -0.98054E+01  0.33001E+00
 -0.30321E+01 -0.98054E+01  0.66999E+00
 -0.30321E+01 -0.98054E+01  0.93057E+00
 -0.33463E+01 -0.96923E+01  0.69432E-01
 -0.33463E+01 -0.96923E+01  0.33001E+00
 -0.33463E+01 -0.96923E+01  0.66999E+00
 -0.33463E+01 -0.96923E+01  0.93057E+00
 -0.33534E+01 -0.96897E+01  0.69432E-01
 -0.33534E+01 -0.96897E+01  0.33001E+00
 -0.33534E+01 -0.96897E+01  0.66999E+00
 -0.33534E+01 -0.96897E+01  0.93057E+00
 -0.26986E+01 -0.99138E+01  0.69432E-01
 -0.26986E+01 -0.99138E+01  0.33001E+00
 -0.26986E+01 -0.99138E+01  0.66999E+00
 -0.26986E+01 -0.99138E+01  0.93057E+00
 -0.27046E+01 -0.99119E+01  0.69432E-01
 -0.27046E+01 -0.99119E+01  0.33001E+00
 -0.27046E+01 -0.99119E+01  0.66999E+00
 -0.27046E+01 -0.99119E+01  0.93057E+00
 -0.30215E+01 -0.98090E+01  0.69432E-01
 -0.30215E+01 -0.98090E+01  0.33001E+00
 -0.30215E+01 -0.98090E+01  0.66999E+00
 -0.30215E+01 -0.98090E+01  0.93057E+00
 -0.30281E+01 -0.98068E+01  0.69432E-01
 -0.30281E+01 -0.98068E+01  0.33001E+00
 -0.30281E+01 -0.98068E+01  0.66999E+00
 -0.30281E+01 -0.98068E+01  0.93057E+00
 -0.20410E+01 -0.10093E+02  0.69432E-01
 -0.20410E+01 -0.10093E+02  0.33001E+00
 -0.20410E+01 -0.10093E+02  0.66999E+00
 -0.13806E+01 -0.10230E+02  0.69432E-01
 -0.13806E+01 -0.10230E+02  0.33001E+00
 -0.13806E+01 -0.10230E+02  0.66999E+00
 -0.13806E+01 -0.10230E+02  0.93057E+00
 -0.10401E+01 -0.10285E+02  0.69432E-01
 -0.10401E+01 -0.10285E+02  0.33001E+00
 -0.10401E+01 -0.10285E+02  0.66999E+00
 -0.10401E+01 -0.10285E+02  0.93057E+00
 -0.10289E+01 -0.10286E+02  0.69432E-01
 -0.10289E+01 -0.10286E+02  0.33001E+00
 -0.10289E+01 -0.10286E+02  0.66999E+00
 -0.10289E+01 -0.10286E+02  0.93057E+00
 -0.36232E+00 -0.10360E+02  0.69432E-01
 -0.36232E+00 -0.10360E+02  0.33001E+00
 -0.36232E+00 -0.10360E+02  0.66999E+00
 -0.54307E+00 -0.10344E+02  0.69432E-01
 -0.54307E+00 -0.10344E+02  0.33001E+00
 -0.54307E+00 -0.10344E+02  0.66999E+00
 -0.54307E+00 -0.10344E+02  0.93057E+00
 -0.11892E-01 -0.10382E+02  0.69432E-01
 -0.11892E-01 -0.10382E+02  0.33001E+00
 -0.11892E-01 -0.10382E+02  0.66999E+00
 -0.11892E-01 -0.10382E+02  0.93057E+00
 -0.12898E-01 -0.10382E+02  0.69432E-01
 -0.12898E-01 -0.10382E+02  0.33001E+00
 -0.12898E-01 -0.10382E+02  0.66999E+00
 -0.12898E-01 -0.10382E+02  0.93057E+00
  0.33264E+00 -0.10393E+02  0.69432E-01
  0.33264E+00 -0.10393E+02  0.33001E+00
  0.33264E+00 -0.10393E+02  0.66999E+00
  0.33264E+00 -0.10393E+02  0.93057E+00
  0.33230E+00 -0.10393E+02  0.69432E-01
  0.33230E+00 -0.10393E+02  0.33001E+00
  0.33230E+00 -0.10393E+02  0.66999E+00
  0.33230E+00 -0.10393E+02  0.93057E+00
 -0.23773E+01 -0.10007E+02  0.69432E-01
 -0.23773E+01 -0.10007E+02  0.33001E+00
 -0.23773E+01 -0.10007E+02  0.66999E+00
 -0.23773E+01 -0.10007E+02  0.93057E+00
 -0.24575E+01 -0.99848E+01  0.69432E-01
 -0.24575E+01 -0.99848E+01  0.33001E+00
 -0.24575E+01 -0.99848E+01  0.66999E+00
 -0.24575E+01 -0.99848E+01  0.93057E+00
 -0.27020E+01 -0.99127E+01  0.69432E-01
 -0.27020E+01 -0.99127E+01  0.33001E+00
 -0.27020E+01 -0.99127E+01  0.66999E+00
 -0.27020E+01 -0.99127E+01  0.93057E+00
 -0.27080E+01 -0.99109E+01  0.69432E-01
 -0.27080E+01 -0.99109E+01  0.33001E+00
 -0.27080E+01 -0.99109E+01  0.66999E+00
 -0.27080E+01 -0.99109E+01  0.93057E+00
 -0.20436E+01 -0.10093E+02  0.69432E-01
 -0.20436E+01 -0.10093E+02  0.33001E+00
 -0.20436E+01 -0.10093E+02  0.66999E+00
 -0.20436E+01 -0.10093E+02  0.93057E+00
 -0.20485E+01 -0.10092E+02  0.69432E-01
 -0.20485E+01 -0.10092E+02  0.33001E+00
 -0.20485E+01 -0.10092E+02  0.66999E+00
 -0.20485E+01 -0.10092E+02  0.93057E+00
 -0.23699E+01 -0.10009E+02  0.69432E-01
 -0.23699E+01 -0.10009E+02  0.33001E+00
 -0.23699E+01 -0.10009E+02  0.66999E+00
 -0.23699E+01 -0.10009E+02  0.93057E+00
 -0.23753E+01 -0.10008E+02  0.69432E-01
 -0.23753E+01 -0.10008E+02  0.33001E+00
 -0.23753E+01 -0.10008E+02  0.66999E+00
 -0.23753E+01 -0.10008E+02  0.93057E+00
 -0.16241E+01 -0.10185E+02  0.69432E-01
 -0.16241E+01 -0.10185E+02  0.33001E+00
 -0.16241E+01 -0.10185E+02  0.66999E+00
 -0.16241E+01 -0.10185E+02  0.93057E+00
 -0.17051E+01 -0.10168E+02  0.69432E-01
 -0.17051E+01 -0.10168E+02  0.33001E+00
 -0.17051E+01 -0.10168E+02  0.66999E+00
 -0.17051E+01 -0.10168E+02  0.93057E+00
 -0.17107E+01 -0.10167E+02  0.69432E-01
 -0.17107E+01 -0.10167E+02  0.33001E+00
 -0.17107E+01 -0.10167E+02  0.66999E+00
 -0.17107E+01 -0.10167E+02  0.93057E+00
 -0.17149E+01 -0.10166E+02  0.69431E-01
 -0.17149E+01 -0.10166E+02  0.33001E+00
 -0.17149E+01 -0.10166E+02  0.66999E+00
 -0.17149E+01 -0.10166E+02  0.93057E+00
 -0.10416E+01 -0.10284E+02  0.69432E-01
 -0.10416E+01 -0.10284E+02  0.33001E+00
 -0.10416E+01 -0.10284E+02  0.66999E+00
 -0.10416E+01 -0.10284E+02  0.93057E+00
 -0.13654E+01 -0.10233E+02  0.69432E-01
 -0.13654E+01 -0.10233E+02  0.33001E+00
 -0.13654E+01 -0.10233E+02  0.66999E+00
 -0.13654E+01 -0.10233E+02  0.93057E+00
 -0.13702E+01 -0.10232E+02  0.69432E-01
 -0.13702E+01 -0.10232E+02  0.33001E+00
 -0.13702E+01 -0.10232E+02  0.66999E+00
 -0.13702E+01 -0.10232E+02  0.93057E+00
 -0.13738E+01 -0.10232E+02  0.69431E-01
 -0.13738E+01 -0.10232E+02  0.33001E+00
 -0.13738E+01 -0.10232E+02  0.66999E+00
 -0.13738E+01 -0.10232E+02  0.93057E+00
 -0.10305E+01 -0.10286E+02  0.69432E-01
 -0.10305E+01 -0.10286E+02  0.33001E+00
 -0.10305E+01 -0.10286E+02  0.66999E+00
 -0.10305E+01 -0.10286E+02  0.93057E+00
 -0.10335E+01 -0.10285E+02  0.69432E-01
 -0.10335E+01 -0.10285E+02  0.33001E+00
 -0.10335E+01 -0.10285E+02  0.66999E+00
 -0.10335E+01 -0.10285E+02  0.93057E+00
 -0.10374E+01 -0.10285E+02  0.69432E-01
 -0.10374E+01 -0.10285E+02  0.33001E+00
 -0.10374E+01 -0.10285E+02  0.66999E+00
 -0.10374E+01 -0.10285E+02  0.93057E+00
 -0.10403E+01 -0.10284E+02  0.69434E-01
 -0.10403E+01 -0.10284E+02  0.33001E+00
 -0.10403E+01 -0.10284E+02  0.66999E+00
 -0.10403E+01 -0.10284E+02  0.93057E+00
 -0.68773E+00 -0.10329E+02  0.69432E-01
 -0.68773E+00 -0.10329E+02  0.33001E+00
 -0.68773E+00 -0.10329E+02  0.66999E+00
 -0.68773E+00 -0.10329E+02  0.93057E+00
 -0.69006E+00 -0.10329E+02  0.69432E-01
 -0.69006E+00 -0.10329E+02  0.33001E+00
 -0.69006E+00 -0.10329E+02  0.66999E+00
 -0.69006E+00 -0.10329E+02  0.93057E+00
 -0.69310E+00 -0.10328E+02  0.69432E-01
 -0.69310E+00 -0.10328E+02  0.33001E+00
 -0.69310E+00 -0.10328E+02  0.66999E+00
 -0.69310E+00 -0.10328E+02  0.93057E+00
 -0.69543E+00 -0.10328E+02  0.69443E-01
 -0.69543E+00 -0.10328E+02  0.33000E+00
 -0.69543E+00 -0.10328E+02  0.67000E+00
 -0.69543E+00 -0.10328E+02  0.93056E+00
 -0.13434E-01 -0.10382E+02  0.69432E-01
 -0.13434E-01 -0.10382E+02  0.33001E+00
 -0.13434E-01 -0.10382E+02  0.66999E+00
 -0.13434E-01 -0.10382E+02  0.93057E+00
 -0.14440E-01 -0.10382E+02  0.69432E-01
 -0.14440E-01 -0.10382E+02  0.33001E+00
 -0.14440E-01 -0.10382E+02  0.66999E+00
 -0.14440E-01 -0.10382E+02  0.93057E+00
 -0.15752E-01 -0.10382E+02  0.69432E-01
 -0.15752E-01 -0.10382E+02  0.33001E+00
 -0.15752E-01 -0.10382E+02  0.66999E+00
 -0.15752E-01 -0.10382E+02  0.93057E+00
  0.33212E+00 -0.10393E+02  0.69432E-01
  0.33212E+00 -0.10393E+02  0.33001E+00
  0.33212E+00 -0.10393E+02  0.66999E+00
  0.33212E+00 -0.10393E+02  0.93057E+00
  0.33178E+00 -0.10393E+02  0.69432E-01
  0.33178E+00 -0.10393E+02  0.33001E+00
  0.33178E+00 -0.10393E+02  0.66999E+00
  0.33178E+00 -0.10393E+02  0.93057E+00
  0.33135E+00 -0.10393E+02  0.69432E-01
  0.33135E+00 -0.10393E+02  0.33001E+00
  0.33135E+00 -0.10393E+02  0.66999E+00
  0.33135E+00 -0.10393E+02  0.93057E+00
 -0.54830E+01 -0.86039E+01  0.69432E-01
 -0.54830E+01 -0.86039E+01  0.33001E+00
 -0.54830E+01 -0.86039E+01  0.66999E+00
 -0.54830E+01 -0.86039E+01  0.93057E+00
 -0.57611E+01 -0.84150E+01  0.69432E-01
 -0.57611E+01 -0.84150E+01  0.33001E+00
 -0.57611E+01 -0.84150E+01  0.66999E+00
 -0.57611E+01 -0.84150E+01  0.93057E+00
 -0.60372E+01 -0.82145E+01  0.69432E-01
 -0.60372E+01 -0.82145E+01  0.33001E+00
 -0.60372E+01 -0.82145E+01  0.66999E+00
 -0.60372E+01 -0.82145E+01  0.93057E+00
 -0.61428E+01 -0.81344E+01  0.69432E-01
 -0.61428E+01 -0.81344E+01  0.33001E+00
 -0.61428E+01 -0.81344E+01  0.66999E+00
 -0.61428E+01 -0.81344E+01  0.93057E+00
 -0.51942E+01 -0.87873E+01  0.69432E-01
 -0.51942E+01 -0.87873E+01  0.33001E+00
 -0.51942E+01 -0.87873E+01  0.66999E+00
 -0.51942E+01 -0.87873E+01  0.93057E+00
 -0.54779E+01 -0.86073E+01  0.69432E-01
 -0.54779E+01 -0.86073E+01  0.33001E+00
 -0.54779E+01 -0.86073E+01  0.66999E+00
 -0.54779E+01 -0.86073E+01  0.93057E+00
 -0.57599E+01 -0.84158E+01  0.69432E-01
 -0.57599E+01 -0.84158E+01  0.33001E+00
 -0.57599E+01 -0.84158E+01  0.66999E+00
 -0.57599E+01 -0.84158E+01  0.93057E+00
 -0.57700E+01 -0.84087E+01  0.69432E-01
 -0.57700E+01 -0.84087E+01  0.33001E+00
 -0.57700E+01 -0.84087E+01  0.66999E+00
 -0.57700E+01 -0.84087E+01  0.93057E+00
 -0.48942E+01 -0.89647E+01  0.69432E-01
 -0.48942E+01 -0.89647E+01  0.33001E+00
 -0.48942E+01 -0.89647E+01  0.66999E+00
 -0.48942E+01 -0.89647E+01  0.93057E+00
 -0.49034E+01 -0.89594E+01  0.69432E-01
 -0.49034E+01 -0.89594E+01  0.33001E+00
 -0.49034E+01 -0.89594E+01  0.66999E+00
 -0.49034E+01 -0.89594E+01  0.93057E+00
 -0.51959E+01 -0.87863E+01  0.69432E-01
 -0.51959E+01 -0.87863E+01  0.33001E+00
 -0.51959E+01 -0.87863E+01  0.66999E+00
 -0.51959E+01 -0.87863E+01  0.93057E+00
 -0.45931E+01 -0.91301E+01  0.69432E-01
 -0.45931E+01 -0.91301E+01  0.33001E+00
 -0.45931E+01 -0.91301E+01  0.66999E+00
 -0.45931E+01 -0.91301E+01  0.93057E+00
 -0.46019E+01 -0.91254E+01  0.69432E-01
 -0.46019E+01 -0.91254E+01  0.33001E+00
 -0.46019E+01 -0.91254E+01  0.66999E+00
 -0.46019E+01 -0.91254E+01  0.93057E+00
 -0.48993E+01 -0.89618E+01  0.69431E-01
 -0.48993E+01 -0.89618E+01  0.33001E+00
 -0.48993E+01 -0.89618E+01  0.66999E+00
 -0.48993E+01 -0.89618E+01  0.93057E+00
 -0.42943E+01 -0.92822E+01  0.69432E-01
 -0.42943E+01 -0.92822E+01  0.33001E+00
 -0.42943E+01 -0.92822E+01  0.66999E+00
 -0.42943E+01 -0.92822E+01  0.93057E+00
 -0.45930E+01 -0.91301E+01  0.69433E-01
 -0.45930E+01 -0.91301E+01  0.33001E+00
 -0.45930E+01 -0.91301E+01  0.66999E+00
 -0.45930E+01 -0.91301E+01  0.93057E+00
 -0.39825E+01 -0.94290E+01  0.69432E-01
 -0.39825E+01 -0.94290E+01  0.33001E+00
 -0.39825E+01 -0.94290E+01  0.66999E+00