           TITLE = "KD-tree"
VARIABLES = "x", "y", "z"
ZONE NODES=8, ELEMENTS = 6, DATAPACKING=POINT, ZONETYPE=FETETRAHEDRON
  0.14830E+00  0.11318E+01  0.13006E+02
  0.14830E+00  0.11318E+01  0.12998E+02
  0.29952E+00  0.10922E+01  0.12998E+02
  0.29952E+00  0.10922E+01  0.13006E+02
  0.13788E+00  0.10921E+01  0.13007E+02
  0.13787E+00  0.10921E+01  0.12998E+02
  0.28910E+00  0.10524E+01  0.12998E+02
  0.28910E+00  0.10525E+01  0.13007E+02
 1 2 3 4
 1 5 8 4
 5 6 7 8
 2 3 7 6
 4 8 7 3
 1 2 6 5
ZONE NODES=8, ELEMENTS = 6, DATAPACKING=POINT, ZONETYPE=FETETRAHEDRON
  0.13788E+00  0.10921E+01  0.13007E+02
  0.13787E+00  0.10921E+01  0.12998E+02
  0.20443E+00  0.10746E+01  0.12998E+02
  0.20444E+00  0.10747E+01  0.13007E+02
  0.12263E+00  0.10340E+01  0.13007E+02
  0.12263E+00  0.10340E+01  0.12998E+02
  0.18919E+00  0.10165E+01  0.12998E+02
  0.18919E+00  0.10165E+01  0.13007E+02
 1 2 3 4
 1 5 8 4
 5 6 7 8
 2 3 7 6
 4 8 7 3
 1 2 6 5
ZONE NODES=8, ELEMENTS = 6, DATAPACKING=POINT, ZONETYPE=FETETRAHEDRON
  0.20444E+00  0.10747E+01  0.13007E+02
  0.20444E+00  0.10746E+01  0.13000E+02
  0.28910E+00  0.10524E+01  0.13000E+02
  0.28910E+00  0.10525E+01  0.13007E+02
  0.18919E+00  0.10165E+01  0.13007E+02
  0.18919E+00  0.10165E+01  0.13000E+02
  0.27385E+00  0.99432E+00  0.13000E+02
  0.27386E+00  0.99433E+00  0.13007E+02
 1 2 3 4
 1 5 8 4
 5 6 7 8
 2 3 7 6
 4 8 7 3
 1 2 6 5
ZONE NODES=8, ELEMENTS = 6, DATAPACKING=POINT, ZONETYPE=FETETRAHEDRON
  0.20444E+00  0.10746E+01  0.13000E+02
  0.20443E+00  0.10746E+01  0.12998E+02
  0.24775E+00  0.10633E+01  0.12998E+02
  0.24775E+00  0.10633E+01  0.13000E+02
  0.19750E+00  0.10482E+01  0.13000E+02
  0.19750E+00  0.10482E+01  0.12998E+02
  0.24081E+00  0.10368E+01  0.12998E+02
  0.24081E+00  0.10368E+01  0.13000E+02
 1 2 3 4
 1 5 8 4
 5 6 7 8
 2 3 7 6
 4 8 7 3
 1 2 6 5
ZONE NODES=8, ELEMENTS = 6, DATAPACKING=POINT, ZONETYPE=FETETRAHEDRON
  0.24775E+00  0.10633E+01  0.13000E+02
  0.24775E+00  0.10633E+01  0.12998E+02
  0.28910E+00  0.10524E+01  0.12998E+02
  0.28910E+00  0.10524E+01  0.13000E+02
  0.24533E+00  0.10540E+01  0.13000E+02
  0.24533E+00  0.10540E+01  0.12998E+02
  0.28668E+00  0.10432E+01  0.12998E+02
  0.28668E+00  0.10432E+01  0.13000E+02
 1 2 3 4
 1 5 8 4
 5 6 7 8
 2 3 7 6
 4 8 7 3
 1 2 6 5
ZONE NODES=8, ELEMENTS = 6, DATAPACKING=POINT, ZONETYPE=FETETRAHEDRON
  0.24533E+00  0.10540E+01  0.13000E+02
  0.24533E+00  0.10540E+01  0.12998E+02
  0.28668E+00  0.10432E+01  0.12998E+02
  0.28668E+00  0.10432E+01  0.13000E+02
  0.24081E+00  0.10368E+01  0.13000E+02
  0.24081E+00  0.10368E+01  0.12998E+02
  0.28216E+00  0.10260E+01  0.12998E+02
  0.28216E+00  0.10260E+01  0.13000E+02
 1 2 3 4
 1 5 8 4
 5 6 7 8
 2 3 7 6
 4 8 7 3
 1 2 6 5
ZONE NODES=8, ELEMENTS = 6, DATAPACKING=POINT, ZONETYPE=FETETRAHEDRON
  0.19750E+00  0.10482E+01  0.13000E+02
  0.19750E+00  0.10482E+01  0.12998E+02
  0.24081E+00  0.10368E+01  0.12998E+02
  0.24081E+00  0.10368E+01  0.13000E+02
  0.19391E+00  0.10345E+01  0.13000E+02
  0.19391E+00  0.10345E+01  0.12998E+02
  0.23723E+00  0.10232E+01  0.12998E+02
  0.23723E+00  0.10232E+01  0.13000E+02
 1 2 3 4
 1 5 8 4
 5 6 7 8
 2 3 7 6
 4 8 7 3
 1 2 6 5
ZONE NODES=8, ELEMENTS = 6, DATAPACKING=POINT, ZONETYPE=FETETRAHEDRON
  0.19391E+00  0.10345E+01  0.13000E+02
  0.19391E+00  0.10345E+01  0.12998E+02
  0.23723E+00  0.10232E+01  0.12998E+02
  0.23723E+00  0.10232E+01  0.13000E+02
  0.18919E+00  0.10165E+01  0.13000E+02
  0.18919E+00  0.10165E+01  0.12998E+02
  0.23251E+00  0.10052E+01  0.12998E+02
  0.23251E+00  0.10052E+01  0.13000E+02
 1 2 3 4
 1 5 8 4
 5 6 7 8
 2 3 7 6
 4 8 7 3
 1 2 6 5
ZONE NODES=8, ELEMENTS = 6, DATAPACKING=POINT, ZONETYPE=FETETRAHEDRON
  0.24081E+00  0.10368E+01  0.13000E+02
  0.24081E+00  0.10368E+01  0.12998E+02
  0.28216E+00  0.10260E+01  0.12998E+02
  0.28216E+00  0.10260E+01  0.13000E+02
  0.23723E+00  0.10232E+01  0.13000E+02
  0.23723E+00  0.10232E+01  0.12998E+02
  0.27858E+00  0.10123E+01  0.12998E+02
  0.27858E+00  0.10123E+01  0.13000E+02
 1 2 3 4
 1 5 8 4
 5 6 7 8
 2 3 7 6
 4 8 7 3
 1 2 6 5
ZONE NODES=8, ELEMENTS = 6, DATAPACKING=POINT, ZONETYPE=FETETRAHEDRON
  0.23723E+00  0.10232E+01  0.13000E+02
  0.23723E+00  0.10232E+01  0.12998E+02
  0.27858E+00  0.10123E+01  0.12998E+02
  0.27858E+00  0.10123E+01  0.13000E+02
  0.23251E+00  0.10052E+01  0.13000E+02
  0.23251E+00  0.10052E+01  0.12998E+02
  0.27385E+00  0.99432E+00  0.12998E+02
  0.27385E+00  0.99432E+00  0.13000E+02
 1 2 3 4
 1 5 8 4
 5 6 7 8
 2 3 7 6
 4 8 7 3
 1 2 6 5
ZONE NODES=8, ELEMENTS = 6, DATAPACKING=POINT, ZONETYPE=FETETRAHEDRON
  0.29952E+00  0.10922E+01  0.13006E+02
  0.29952E+00  0.10922E+01  0.12998E+02
  0.41062E+00  0.10630E+01  0.12998E+02
  0.41062E+00  0.10630E+01  0.13006E+02
  0.29396E+00  0.10710E+01  0.13007E+02
  0.29395E+00  0.10709E+01  0.12998E+02
  0.40505E+00  0.10418E+01  0.12998E+02
  0.40506E+00  0.10418E+01  0.13007E+02
 1 2 3 4
 1 5 8 4
 5 6 7 8
 2 3 7 6
 4 8 7 3
 1 2 6 5
ZONE NODES=8, ELEMENTS = 6, DATAPACKING=POINT, ZONETYPE=FETETRAHEDRON
  0.29396E+00  0.10710E+01  0.13007E+02
  0.29395E+00  0.10709E+01  0.13000E+02
  0.40505E+00  0.10418E+01  0.13000E+02
  0.40506E+00  0.10418E+01  0.13007E+02
  0.28529E+00  0.10379E+01  0.13007E+02
  0.28529E+00  0.10379E+01  0.13000E+02
  0.39639E+00  0.10088E+01  0.13000E+02
  0.39639E+00  0.10088E+01  0.13007E+02
 1 2 3 4
 1 5 8 4
 5 6 7 8
 2 3 7 6
 4 8 7 3
 1 2 6 5
ZONE NODES=8, ELEMENTS = 6, DATAPACKING=POINT, ZONETYPE=FETETRAHEDRON
  0.29395E+00  0.10709E+01  0.13000E+02
  0.29395E+00  0.10709E+01  0.12998E+02
  0.31664E+00  0.10650E+01  0.12998E+02
  0.31664E+00  0.10650E+01  0.13000E+02
  0.29013E+00  0.10564E+01  0.13000E+02
  0.29013E+00  0.10564E+01  0.12998E+02
  0.31282E+00  0.10504E+01  0.12998E+02
  0.31282E+00  0.10504E+01  0.13000E+02
 1 2 3 4
 1 5 8 4
 5 6 7 8
 2 3 7 6
 4 8 7 3
 1 2 6 5
ZONE NODES=8, ELEMENTS = 6, DATAPACKING=POINT, ZONETYPE=FETETRAHEDRON
  0.31664E+00  0.10650E+01  0.13000E+02
  0.31664E+00  0.10650E+01  0.12998E+02
  0.35293E+00  0.10555E+01  0.12998E+02
  0.35294E+00  0.10555E+01  0.13000E+02
  0.31282E+00  0.10504E+01  0.13000E+02
  0.31282E+00  0.10504E+01  0.12998E+02
  0.34911E+00  0.10409E+01  0.12998E+02
  0.34911E+00  0.10409E+01  0.13000E+02
 1 2 3 4
 1 5 8 4
 5 6 7 8
 2 3 7 6
 4 8 7 3
 1 2 6 5
ZONE NODES=8, ELEMENTS = 6, DATAPACKING=POINT, ZONETYPE=FETETRAHEDRON
  0.29013E+00  0.10564E+01  0.13000E+02
  0.29013E+00  0.10564E+01  0.12998E+02
  0.31282E+00  0.10504E+01  0.12998E+02
  0.31282E+00  0.10504E+01  0.13000E+02
  0.28529E+00  0.10379E+01  0.13000E+02
  0.28529E+00  0.10379E+01  0.12998E+02
  0.30797E+00  0.10320E+01  0.12998E+02
  0.30797E+00  0.10320E+01  0.13000E+02
 1 2 3 4
 1 5 8 4
 5 6 7 8
 2 3 7 6
 4 8 7 3
 1 2 6 5
ZONE NODES=8, ELEMENTS = 6, DATAPACKING=POINT, ZONETYPE=FETETRAHEDRON
  0.31282E+00  0.10504E+01  0.13000E+02
  0.31282E+00  0.10504E+01  0.12998E+02
  0.34911E+00  0.10409E+01  0.12998E+02
  0.34911E+00  0.10409E+01  0.13000E+02
  0.30797E+00  0.10320E+01  0.13000E+02
  0.30797E+00  0.10320E+01  0.12998E+02
  0.34427E+00  0.10224E+01  0.12998E+02
  0.34427E+00  0.10224E+01  0.13000E+02
 1 2 3 4
 1 5 8 4
 5 6 7 8
 2 3 7 6
 4 8 7 3
 1 2 6 5
ZONE NODES=8, ELEMENTS = 6, DATAPACKING=POINT, ZONETYPE=FETETRAHEDRON
  0.35294E+00  0.10555E+01  0.13000E+02
  0.35293E+00  0.10555E+01  0.13000E+02
  0.40505E+00  0.10418E+01  0.13000E+02
  0.40505E+00  0.10418E+01  0.13000E+02
  0.34911E+00  0.10409E+01  0.13000E+02
  0.34911E+00  0.10409E+01  0.13000E+02
  0.40123E+00  0.10272E+01  0.13000E+02
  0.40123E+00  0.10272E+01  0.13000E+02
 1 2 3 4
 1 5 8 4
 5 6 7 8
 2 3 7 6
 4 8 7 3
 1 2 6 5
ZONE NODES=8, ELEMENTS = 6, DATAPACKING=POINT, ZONETYPE=FETETRAHEDRON
  0.35293E+00  0.10555E+01  0.13000E+02
  0.35293E+00  0.10555E+01  0.12998E+02
  0.40505E+00  0.10418E+01  0.12998E+02
  0.40505E+00  0.10418E+01  0.13000E+02
  0.34911E+00  0.10409E+01  0.13000E+02
  0.34911E+00  0.10409E+01  0.12998E+02
  0.40123E+00  0.10272E+01  0.12998E+02
  0.40123E+00  0.10272E+01  0.13000E+02
 1 2 3 4
 1 5 8 4
 5 6 7 8
 2 3 7 6
 4 8 7 3
 1 2 6 5
ZONE NODES=8, ELEMENTS = 6, DATAPACKING=POINT, ZONETYPE=FETETRAHEDRON
  0.34911E+00  0.10409E+01  0.13000E+02
  0.34911E+00  0.10409E+01  0.13000E+02
  0.40123E+00  0.10272E+01  0.13000E+02
  0.40123E+00  0.10272E+01  0.13000E+02
  0.34427E+00  0.10224E+01  0.13000E+02
  0.34427E+00  0.10224E+01  0.13000E+02
  0.39639E+00  0.10088E+01  0.13000E+02
  0.39639E+00  0.10088E+01  0.13000E+02
 1 2 3 4
 1 5 8 4
 5 6 7 8
 2 3 7 6
 4 8 7 3
 1 2 6 5
ZONE NODES=8, ELEMENTS = 6, DATAPACKING=POINT, ZONETYPE=FETETRAHEDRON
  0.34911E+00  0.10409E+01  0.13000E+02
  0.34911E+00  0.10409E+01  0.12998E+02
  0.40123E+00  0.10272E+01  0.12998E+02
  0.40123E+00  0.10272E+01  0.13000E+02
  0.34427E+00  0.10224E+01  0.13000E+02
  0.34427E+00  0.10224E+01  0.12998E+02
  0.39639E+00  0.10088E+01  0.12998E+02
  0.39639E+00  0.10088E+01  0.13000E+02
 1 2 3 4
 1 5 8 4
 5 6 7 8
 2 3 7 6
 4 8 7 3
 1 2 6 5
ZONE NODES=8, ELEMENTS = 6, DATAPACKING=POINT, ZONETYPE=FETETRAHEDRON
  0.28529E+00  0.10379E+01  0.13007E+02
  0.28529E+00  0.10379E+01  0.13000E+02
  0.39639E+00  0.10088E+01  0.13000E+02
  0.39639E+00  0.10088E+01  0.13007E+02
  0.27386E+00  0.99433E+00  0.13007E+02
  0.27385E+00  0.99432E+00  0.13000E+02
  0.38495E+00  0.96518E+00  0.13000E+02
  0.38496E+00  0.96519E+00  0.13007E+02
 1 2 3 4
 1 5 8 4
 5 6 7 8
 2 3 7 6
 4 8 7 3
 1 2 6 5
ZONE NODES=8, ELEMENTS = 6, DATAPACKING=POINT, ZONETYPE=FETETRAHEDRON
  0.28529E+00  0.10379E+01  0.13000E+02
  0.28529E+00  0.10379E+01  0.13000E+02
  0.30797E+00  0.10320E+01  0.13000E+02
  0.30797E+00  0.10320E+01  0.13000E+02
  0.27858E+00  0.10123E+01  0.13000E+02
  0.27858E+00  0.10123E+01  0.13000E+02
  0.30127E+00  0.10064E+01  0.13000E+02
  0.30127E+00  0.10064E+01  0.13000E+02
 1 2 3 4
 1 5 8 4
 5 6 7 8
 2 3 7 6
 4 8 7 3
 1 2 6 5
ZONE NODES=8, ELEMENTS = 6, DATAPACKING=POINT, ZONETYPE=FETETRAHEDRON
  0.28529E+00  0.10379E+01  0.13000E+02
  0.28529E+00  0.10379E+01  0.12998E+02
  0.30797E+00  0.10320E+01  0.12998E+02
  0.30797E+00  0.10320E+01  0.13000E+02
  0.27858E+00  0.10123E+01  0.13000E+02
  0.27858E+00  0.10123E+01  0.12998E+02
  0.30126E+00  0.10064E+01  0.12998E+02
  0.30127E+00  0.10064E+01  0.13000E+02
 1 2 3 4
 1 5 8 4
 5 6 7 8
 2 3 7 6
 4 8 7 3
 1 2 6 5
ZONE NODES=8, ELEMENTS = 6, DATAPACKING=POINT, ZONETYPE=FETETRAHEDRON
  0.30797E+00  0.10320E+01  0.13000E+02
  0.30797E+00  0.10320E+01  0.13000E+02
  0.34427E+00  0.10224E+01  0.13000E+02
  0.34427E+00  0.10224E+01  0.13000E+02
  0.30127E+00  0.10064E+01  0.13000E+02
  0.30127E+00  0.10064E+01  0.13000E+02
  0.33756E+00  0.99686E+00  0.13000E+02
  0.33756E+00  0.99686E+00  0.13000E+02
 1 2 3 4
 1 5 8 4
 5 6 7 8
 2 3 7 6
 4 8 7 3
 1 2 6 5
ZONE NODES=8, ELEMENTS = 6, DATAPACKING=POINT, ZONETYPE=FETETRAHEDRON
  0.30797E+00  0.10320E+01  0.13000E+02
  0.30797E+00  0.10320E+01  0.12998E+02
  0.34427E+00  0.10224E+01  0.12998E+02
  0.34427E+00  0.10224E+01  0.13000E+02
  0.30127E+00  0.10064E+01  0.13000E+02
  0.30126E+00  0.10064E+01  0.12998E+02
  0.33756E+00  0.99686E+00  0.12998E+02
  0.33756E+00  0.99686E+00  0.13000E+02
 1 2 3 4
 1 5 8 4
 5 6 7 8
 2 3 7 6
 4 8 7 3
 1 2 6 5
ZONE NODES=8, ELEMENTS = 6, DATAPACKING=POINT, ZONETYPE=FETETRAHEDRON
  0.27858E+00  0.10123E+01  0.13000E+02
  0.27858E+00  0.10123E+01  0.13000E+02
  0.31307E+00  0.10033E+01  0.13000E+02
  0.31307E+00  0.10033E+01  0.13000E+02
  0.27385E+00  0.99432E+00  0.13000E+02
  0.27385E+00  0.99432E+00  0.13000E+02
  0.30835E+00  0.98527E+00  0.13000E+02
  0.30835E+00  0.98527E+00  0.13000E+02
 1 2 3 4
 1 5 8 4
 5 6 7 8
 2 3 7 6
 4 8 7 3
 1 2 6 5
ZONE NODES=8, ELEMENTS = 6, DATAPACKING=POINT, ZONETYPE=FETETRAHEDRON
  0.27858E+00  0.10123E+01  0.13000E+02
  0.27858E+00  0.10123E+01  0.12998E+02
  0.31307E+00  0.10033E+01  0.12998E+02
  0.31307E+00  0.10033E+01  0.13000E+02
  0.27385E+00  0.99432E+00  0.13000E+02
  0.27385E+00  0.99432E+00  0.12998E+02
  0.30835E+00  0.98527E+00  0.12998E+02
  0.30835E+00  0.98527E+00  0.13000E+02
 1 2 3 4
 1 5 8 4
 5 6 7 8
 2 3 7 6
 4 8 7 3
 1 2 6 5
ZONE NODES=8, ELEMENTS = 6, DATAPACKING=POINT, ZONETYPE=FETETRAHEDRON
  0.31307E+00  0.10033E+01  0.13000E+02
  0.31307E+00  0.10033E+01  0.12998E+02
  0.33756E+00  0.99686E+00  0.12998E+02
  0.33756E+00  0.99686E+00  0.13000E+02
  0.30927E+00  0.98879E+00  0.13000E+02
  0.30927E+00  0.98879E+00  0.12998E+02
  0.33376E+00  0.98236E+00  0.12998E+02
  0.33376E+00  0.98237E+00  0.13000E+02
 1 2 3 4
 1 5 8 4
 5 6 7 8
 2 3 7 6
 4 8 7 3
 1 2 6 5
ZONE NODES=8, ELEMENTS = 6, DATAPACKING=POINT, ZONETYPE=FETETRAHEDRON
  0.30927E+00  0.98879E+00  0.13000E+02
  0.30927E+00  0.98879E+00  0.12998E+02
  0.33376E+00  0.98236E+00  0.12998E+02
  0.33376E+00  0.98237E+00  0.13000E+02
  0.30835E+00  0.98527E+00  0.13000E+02
  0.30835E+00  0.98527E+00  0.12998E+02
  0.33284E+00  0.97885E+00  0.12998E+02
  0.33284E+00  0.97885E+00  0.13000E+02
 1 2 3 4
 1 5 8 4
 5 6 7 8
 2 3 7 6
 4 8 7 3
 1 2 6 5
ZONE NODES=8, ELEMENTS = 6, DATAPACKING=POINT, ZONETYPE=FETETRAHEDRON
  0.34427E+00  0.10224E+01  0.13000E+02
  0.34427E+00  0.10224E+01  0.12998E+02
  0.36984E+00  0.10157E+01  0.12998E+02
  0.36984E+00  0.10157E+01  0.13000E+02
  0.34114E+00  0.10105E+01  0.13000E+02
  0.34114E+00  0.10105E+01  0.12998E+02
  0.36671E+00  0.10038E+01  0.12998E+02
  0.36671E+00  0.10038E+01  0.13000E+02
 1 2 3 4
 1 5 8 4
 5 6 7 8
 2 3 7 6
 4 8 7 3
 1 2 6 5
ZONE NODES=8, ELEMENTS = 6, DATAPACKING=POINT, ZONETYPE=FETETRAHEDRON
  0.34114E+00  0.10105E+01  0.13000E+02
  0.34114E+00  0.10105E+01  0.12998E+02
  0.36671E+00  0.10038E+01  0.12998E+02
  0.36671E+00  0.10038E+01  0.13000E+02
  0.33827E+00  0.99957E+00  0.13000E+02
  0.33827E+00  0.99957E+00  0.12998E+02
  0.36384E+00  0.99286E+00  0.12998E+02
  0.36384E+00  0.99287E+00  0.13000E+02
 1 2 3 4
 1 5 8 4
 5 6 7 8
 2 3 7 6
 4 8 7 3
 1 2 6 5
ZONE NODES=8, ELEMENTS = 6, DATAPACKING=POINT, ZONETYPE=FETETRAHEDRON
  0.33827E+00  0.99957E+00  0.13000E+02
  0.33827E+00  0.99957E+00  0.12998E+02
  0.35093E+00  0.99625E+00  0.12998E+02
  0.35093E+00  0.99625E+00  0.13000E+02
  0.33284E+00  0.97885E+00  0.13000E+02
  0.33284E+00  0.97885E+00  0.12998E+02
  0.34549E+00  0.97553E+00  0.12998E+02
  0.34549E+00  0.97553E+00  0.13000E+02
 1 2 3 4
 1 5 8 4
 5 6 7 8
 2 3 7 6
 4 8 7 3
 1 2 6 5
ZONE NODES=8, ELEMENTS = 6, DATAPACKING=POINT, ZONETYPE=FETETRAHEDRON
  0.35093E+00  0.99625E+00  0.13000E+02
  0.35093E+00  0.99625E+00  0.12998E+02
  0.36384E+00  0.99286E+00  0.12998E+02
  0.36384E+00  0.99287E+00  0.13000E+02
  0.34549E+00  0.97553E+00  0.13000E+02
  0.34549E+00  0.97553E+00  0.12998E+02
  0.35841E+00  0.97214E+00  0.12998E+02
  0.35841E+00  0.97214E+00  0.13000E+02
 1 2 3 4
 1 5 8 4
 5 6 7 8
 2 3 7 6
 4 8 7 3
 1 2 6 5
ZONE NODES=8, ELEMENTS = 6, DATAPACKING=POINT, ZONETYPE=FETETRAHEDRON
  0.36984E+00  0.10157E+01  0.13000E+02
  0.36984E+00  0.10157E+01  0.12998E+02
  0.39639E+00  0.10088E+01  0.12998E+02
  0.39639E+00  0.10088E+01  0.13000E+02
  0.36671E+00  0.10038E+01  0.13000E+02
  0.36671E+00  0.10038E+01  0.12998E+02
  0.39326E+00  0.99684E+00  0.12998E+02
  0.39326E+00  0.99684E+00  0.13000E+02
 1 2 3 4
 1 5 8 4
 5 6 7 8
 2 3 7 6
 4 8 7 3
 1 2 6 5
ZONE NODES=8, ELEMENTS = 6, DATAPACKING=POINT, ZONETYPE=FETETRAHEDRON
  0.36671E+00  0.10038E+01  0.13000E+02
  0.36671E+00  0.10038E+01  0.12998E+02
  0.39326E+00  0.99684E+00  0.12998E+02
  0.39326E+00  0.99684E+00  0.13000E+02
  0.36250E+00  0.98774E+00  0.13000E+02
  0.36250E+00  0.98774E+00  0.12998E+02
  0.38905E+00  0.98078E+00  0.12998E+02
  0.38905E+00  0.98078E+00  0.13000E+02
 1 2 3 4
 1 5 8 4
 5 6 7 8
 2 3 7 6
 4 8 7 3
 1 2 6 5
ZONE NODES=8, ELEMENTS = 6, DATAPACKING=POINT, ZONETYPE=FETETRAHEDRON
  0.36250E+00  0.98774E+00  0.13000E+02
  0.36250E+00  0.98774E+00  0.12998E+02
  0.38905E+00  0.98078E+00  0.12998E+02
  0.38905E+00  0.98078E+00  0.13000E+02
  0.35841E+00  0.97214E+00  0.13000E+02
  0.35841E+00  0.97214E+00  0.12998E+02
  0.38495E+00  0.96518E+00  0.12998E+02
  0.38495E+00  0.96518E+00  0.13000E+02
 1 2 3 4
 1 5 8 4
 5 6 7 8
 2 3 7 6
 4 8 7 3
 1 2 6 5
ZONE NODES=8, ELEMENTS = 6, DATAPACKING=POINT, ZONETYPE=FETETRAHEDRON
  0.41062E+00  0.10630E+01  0.13006E+02
  0.41062E+00  0.10630E+01  0.12998E+02
  0.49508E+00  0.10409E+01  0.12998E+02
  0.49509E+00  0.10409E+01  0.13006E+02
  0.40527E+00  0.10426E+01  0.13007E+02
  0.40527E+00  0.10426E+01  0.12998E+02
  0.48973E+00  0.10205E+01  0.12998E+02
  0.48973E+00  0.10205E+01  0.13007E+02
 1 2 3 4
 1 5 8 4
 5 6 7 8
 2 3 7 6
 4 8 7 3
 1 2 6 5
ZONE NODES=8, ELEMENTS = 6, DATAPACKING=POINT, ZONETYPE=FETETRAHEDRON
  0.49509E+00  0.10409E+01  0.13006E+02
  0.49508E+00  0.10409E+01  0.12998E+02
  0.52447E+00  0.10332E+01  0.12998E+02
  0.52447E+00  0.10332E+01  0.13006E+02
  0.49258E+00  0.10314E+01  0.13006E+02
  0.49258E+00  0.10313E+01  0.12998E+02
  0.52197E+00  0.10236E+01  0.12998E+02
  0.52197E+00  0.10236E+01  0.13006E+02
 1 2 3 4
 1 5 8 4
 5 6 7 8
 2 3 7 6
 4 8 7 3
 1 2 6 5
ZONE NODES=8, ELEMENTS = 6, DATAPACKING=POINT, ZONETYPE=FETETRAHEDRON
  0.49258E+00  0.10314E+01  0.13006E+02
  0.49258E+00  0.10313E+01  0.13000E+02
  0.52197E+00  0.10236E+01  0.13000E+02
  0.52197E+00  0.10236E+01  0.13006E+02
  0.48973E+00  0.10205E+01  0.13007E+02
  0.48973E+00  0.10205E+01  0.13000E+02
  0.51912E+00  0.10128E+01  0.13000E+02
  0.51912E+00  0.10128E+01  0.13007E+02
 1 2 3 4
 1 5 8 4
 5 6 7 8
 2 3 7 6
 4 8 7 3
 1 2 6 5
ZONE NODES=8, ELEMENTS = 6, DATAPACKING=POINT, ZONETYPE=FETETRAHEDRON
  0.49258E+00  0.10313E+01  0.13000E+02
  0.49258E+00  0.10313E+01  0.12998E+02
  0.52197E+00  0.10236E+01  0.12998E+02
  0.52197E+00  0.10236E+01  0.13000E+02
  0.48973E+00  0.10205E+01  0.13000E+02
  0.48973E+00  0.10205E+01  0.12998E+02
  0.51912E+00  0.10128E+01  0.12998E+02
  0.51912E+00  0.10128E+01  0.13000E+02
 1 2 3 4
 1 5 8 4
 5 6 7 8
 2 3 7 6
 4 8 7 3
 1 2 6 5
ZONE NODES=8, ELEMENTS = 6, DATAPACKING=POINT, ZONETYPE=FETETRAHEDRON
  0.52447E+00  0.10332E+01  0.13006E+02
  0.52447E+00  0.10332E+01  0.13000E+02
  0.56932E+00  0.10214E+01  0.13000E+02
  0.56932E+00  0.10214E+01  0.13006E+02
  0.51912E+00  0.10128E+01  0.13007E+02
  0.51912E+00  0.10128E+01  0.13000E+02
  0.56397E+00  0.10010E+01  0.13000E+02
  0.56397E+00  0.10010E+01  0.13007E+02
 1 2 3 4
 1 5 8 4
 5 6 7 8
 2 3 7 6
 4 8 7 3
 1 2 6 5
ZONE NODES=8, ELEMENTS = 6, DATAPACKING=POINT, ZONETYPE=FETETRAHEDRON
  0.52447E+00  0.10332E+01  0.13000E+02
  0.52447E+00  0.10332E+01  0.12998E+02
  0.53933E+00  0.10293E+01  0.12998E+02
  0.53933E+00  0.10293E+01  0.13000E+02
  0.51912E+00  0.10128E+01  0.13000E+02
  0.51912E+00  0.10128E+01  0.12998E+02
  0.53398E+00  0.10089E+01  0.12998E+02
  0.53398E+00  0.10089E+01  0.13000E+02
 1 2 3 4
 1 5 8 4
 5 6 7 8
 2 3 7 6
 4 8 7 3
 1 2 6 5
ZONE NODES=8, ELEMENTS = 6, DATAPACKING=POINT, ZONETYPE=FETETRAHEDRON
  0.53933E+00  0.10293E+01  0.13000E+02
  0.53933E+00  0.10293E+01  0.12998E+02
  0.56932E+00  0.10214E+01  0.12998E+02
  0.56932E+00  0.10214E+01  0.13000E+02
  0.53398E+00  0.10089E+01  0.13000E+02
  0.53398E+00  0.10089E+01  0.12998E+02
  0.56397E+00  0.10010E+01  0.12998E+02
  0.56397E+00  0.10010E+01  0.13000E+02
 1 2 3 4
 1 5 8 4
 5 6 7 8
 2 3 7 6
 4 8 7 3
 1 2 6 5
ZONE NODES=8, ELEMENTS = 6, DATAPACKING=POINT, ZONETYPE=FETETRAHEDRON
  0.40527E+00  0.10426E+01  0.13007E+02
  0.40527E+00  0.10426E+01  0.13000E+02
  0.56397E+00  0.10010E+01  0.13000E+02
  0.56397E+00  0.10010E+01  0.13007E+02
  0.39864E+00  0.10174E+01  0.13007E+02
  0.39864E+00  0.10174E+01  0.13000E+02
  0.55734E+00  0.97574E+00  0.13000E+02
  0.55734E+00  0.97575E+00  0.13007E+02
 1 2 3 4
 1 5 8 4
 5 6 7 8
 2 3 7 6
 4 8 7 3
 1 2 6 5
ZONE NODES=8, ELEMENTS = 6, DATAPACKING=POINT, ZONETYPE=FETETRAHEDRON
  0.40527E+00  0.10426E+01  0.13000E+02
  0.40527E+00  0.10426E+01  0.12998E+02
  0.44670E+00  0.10318E+01  0.12998E+02
  0.44670E+00  0.10318E+01  0.13000E+02
  0.40134E+00  0.10276E+01  0.13000E+02
  0.40134E+00  0.10276E+01  0.12998E+02
  0.44277E+00  0.10168E+01  0.12998E+02
  0.44277E+00  0.10168E+01  0.13000E+02
 1 2 3 4
 1 5 8 4
 5 6 7 8
 2 3 7 6
 4 8 7 3
 1 2 6 5
ZONE NODES=8, ELEMENTS = 6, DATAPACKING=POINT, ZONETYPE=FETETRAHEDRON
  0.40134E+00  0.10276E+01  0.13000E+02
  0.40134E+00  0.10276E+01  0.12998E+02
  0.44277E+00  0.10168E+01  0.12998E+02
  0.44277E+00  0.10168E+01  0.13000E+02
  0.39864E+00  0.10174E+01  0.13000E+02
  0.39864E+00  0.10174E+01  0.12998E+02
  0.44007E+00  0.10065E+01  0.12998E+02
  0.44007E+00  0.10065E+01  0.13000E+02
 1 2 3 4
 1 5 8 4
 5 6 7 8
 2 3 7 6
 4 8 7 3
 1 2 6 5
ZONE NODES=8, ELEMENTS = 6, DATAPACKING=POINT, ZONETYPE=FETETRAHEDRON
  0.44670E+00  0.10318E+01  0.13000E+02
  0.44670E+00  0.10318E+01  0.12998E+02
  0.47523E+00  0.10243E+01  0.12998E+02
  0.47523E+00  0.10243E+01  0.13000E+02
  0.44436E+00  0.10228E+01  0.13000E+02
  0.44436E+00  0.10228E+01  0.12998E+02
  0.47289E+00  0.10154E+01  0.12998E+02
  0.47289E+00  0.10154E+01  0.13000E+02
 1 2 3 4
 1 5 8 4
 5 6 7 8
 2 3 7 6
 4 8 7 3
 1 2 6 5
ZONE NODES=8, ELEMENTS = 6, DATAPACKING=POINT, ZONETYPE=FETETRAHEDRON
  0.44436E+00  0.10228E+01  0.13000E+02
  0.44436E+00  0.10228E+01  0.12998E+02
  0.47289E+00  0.10154E+01  0.12998E+02
  0.47289E+00  0.10154E+01  0.13000E+02
  0.44007E+00  0.10065E+01  0.13000E+02
  0.44007E+00  0.10065E+01  0.12998E+02
  0.46861E+00  0.99901E+00  0.12998E+02
  0.46861E+00  0.99901E+00  0.13000E+02
 1 2 3 4
 1 5 8 4
 5 6 7 8
 2 3 7 6
 4 8 7 3
 1 2 6 5
ZONE NODES=8, ELEMENTS = 6, DATAPACKING=POINT, ZONETYPE=FETETRAHEDRON
  0.47523E+00  0.10243E+01  0.13000E+02
  0.47523E+00  0.10243E+01  0.12998E+02
  0.48973E+00  0.10205E+01  0.12998E+02
  0.48973E+00  0.10205E+01  0.13000E+02
  0.46861E+00  0.99901E+00  0.13000E+02
  0.46861E+00  0.99901E+00  0.12998E+02
  0.48310E+00  0.99521E+00  0.12998E+02
  0.48310E+00  0.99521E+00  0.13000E+02
 1 2 3 4
 1 5 8 4
 5 6 7 8
 2 3 7 6
 4 8 7 3
 1 2 6 5
ZONE NODES=8, ELEMENTS = 6, DATAPACKING=POINT, ZONETYPE=FETETRAHEDRON
  0.48973E+00  0.10205E+01  0.13000E+02
  0.48973E+00  0.10205E+01  0.12998E+02
  0.51912E+00  0.10128E+01  0.12998E+02
  0.51912E+00  0.10128E+01  0.13000E+02
  0.48310E+00  0.99521E+00  0.13000E+02
  0.48310E+00  0.99521E+00  0.12998E+02
  0.51249E+00  0.98750E+00  0.12998E+02
  0.51249E+00  0.98750E+00  0.13000E+02
 1 2 3 4
 1 5 8 4
 5 6 7 8
 2 3 7 6
 4 8 7 3
 1 2 6 5
ZONE NODES=8, ELEMENTS = 6, DATAPACKING=POINT, ZONETYPE=FETETRAHEDRON
  0.51912E+00  0.10128E+01  0.13000E+02
  0.51912E+00  0.10128E+01  0.12998E+02
  0.56397E+00  0.10010E+01  0.12998E+02
  0.56397E+00  0.10010E+01  0.13000E+02
  0.51653E+00  0.10029E+01  0.13000E+02
  0.51653E+00  0.10029E+01  0.12998E+02
  0.56138E+00  0.99115E+00  0.12998E+02
  0.56138E+00  0.99115E+00  0.13000E+02
 1 2 3 4
 1 5 8 4
 5 6 7 8
 2 3 7 6
 4 8 7 3
 1 2 6 5
ZONE NODES=8, ELEMENTS = 6, DATAPACKING=POINT, ZONETYPE=FETETRAHEDRON
  0.51653E+00  0.10029E+01  0.13000E+02
  0.51653E+00  0.10029E+01  0.12998E+02
  0.56138E+00  0.99115E+00  0.12998E+02
  0.56138E+00  0.99115E+00  0.13000E+02
  0.51249E+00  0.98750E+00  0.13000E+02
  0.51249E+00  0.98750E+00  0.12998E+02
  0.55734E+00  0.97574E+00  0.12998E+02
  0.55734E+00  0.97574E+00  0.13000E+02
 1 2 3 4
 1 5 8 4
 5 6 7 8
 2 3 7 6
 4 8 7 3
 1 2 6 5
ZONE NODES=8, ELEMENTS = 6, DATAPACKING=POINT, ZONETYPE=FETETRAHEDRON
  0.56932E+00  0.10214E+01  0.13006E+02
  0.56932E+00  0.10214E+01  0.13000E+02
  0.59955E+00  0.10135E+01  0.13000E+02
  0.59955E+00  0.10135E+01  0.13006E+02
  0.56375E+00  0.10002E+01  0.13007E+02
  0.56375E+00  0.10002E+01  0.13000E+02
  0.59398E+00  0.99226E+00  0.13000E+02
  0.59399E+00  0.99227E+00  0.13007E+02
 1 2 3 4
 1 5 8 4
 5 6 7 8
 2 3 7 6
 4 8 7 3
 1 2 6 5
ZONE NODES=8, ELEMENTS = 6, DATAPACKING=POINT, ZONETYPE=FETETRAHEDRON
  0.56932E+00  0.10214E+01  0.13000E+02
  0.56932E+00  0.10214E+01  0.12998E+02
  0.58441E+00  0.10175E+01  0.12998E+02
  0.58441E+00  0.10175E+01  0.13000E+02
  0.56375E+00  0.10002E+01  0.13000E+02
  0.56375E+00  0.10002E+01  0.12998E+02
  0.57884E+00  0.99622E+00  0.12998E+02
  0.57884E+00  0.99623E+00  0.13000E+02
 1 2 3 4
 1 5 8 4
 5 6 7 8
 2 3 7 6
 4 8 7 3
 1 2 6 5
ZONE NODES=8, ELEMENTS = 6, DATAPACKING=POINT, ZONETYPE=FETETRAHEDRON
  0.58441E+00  0.10175E+01  0.13000E+02
  0.58441E+00  0.10175E+01  0.12998E+02
  0.59955E+00  0.10135E+01  0.12998E+02
  0.59955E+00  0.10135E+01  0.13000E+02
  0.57884E+00  0.99623E+00  0.13000E+02
  0.57884E+00  0.99622E+00  0.12998E+02
  0.59398E+00  0.99225E+00  0.12998E+02
  0.59398E+00  0.99226E+00  0.13000E+02
 1 2 3 4
 1 5 8 4
 5 6 7 8
 2 3 7 6
 4 8 7 3
 1 2 6 5
ZONE NODES=8, ELEMENTS = 6, DATAPACKING=POINT, ZONETYPE=FETETRAHEDRON
  0.59955E+00  0.10135E+01  0.13006E+02
  0.59955E+00  0.10135E+01  0.13000E+02
  0.62991E+00  0.10055E+01  0.13000E+02
  0.62992E+00  0.10055E+01  0.13006E+02
  0.59399E+00  0.99227E+00  0.13007E+02
  0.59398E+00  0.99226E+00  0.13000E+02
  0.62435E+00  0.98429E+00  0.13000E+02
  0.62435E+00  0.98430E+00  0.13007E+02
 1 2 3 4
 1 5 8 4
 5 6 7 8
 2 3 7 6
 4 8 7 3
 1 2 6 5
ZONE NODES=8, ELEMENTS = 6, DATAPACKING=POINT, ZONETYPE=FETETRAHEDRON
  0.59955E+00  0.10135E+01  0.13000E+02
  0.59955E+00  0.10135E+01  0.12998E+02
  0.61472E+00  0.10095E+01  0.12998E+02
  0.61472E+00  0.10095E+01  0.13000E+02
  0.59398E+00  0.99226E+00  0.13000E+02
  0.59398E+00  0.99225E+00  0.12998E+02
  0.60916E+00  0.98827E+00  0.12998E+02
  0.60916E+00  0.98828E+00  0.13000E+02
 1 2 3 4
 1 5 8 4
 5 6 7 8
 2 3 7 6
 4 8 7 3
 1 2 6 5
ZONE NODES=8, ELEMENTS = 6, DATAPACKING=POINT, ZONETYPE=FETETRAHEDRON
  0.61472E+00  0.10095E+01  0.13000E+02
  0.61472E+00  0.10095E+01  0.12998E+02
  0.62991E+00  0.10055E+01  0.12998E+02
  0.62991E+00  0.10055E+01  0.13000E+02
  0.60916E+00  0.98828E+00  0.13000E+02
  0.60916E+00  0.98827E+00  0.12998E+02
  0.62435E+00  0.98429E+00  0.12998E+02
  0.62435E+00  0.98429E+00  0.13000E+02
 1 2 3 4
 1 5 8 4
 5 6 7 8
 2 3 7 6
 4 8 7 3
 1 2 6 5
ZONE NODES=8, ELEMENTS = 6, DATAPACKING=POINT, ZONETYPE=FETETRAHEDRON
  0.56375E+00  0.10002E+01  0.13007E+02
  0.56375E+00  0.10002E+01  0.13000E+02
  0.62435E+00  0.98429E+00  0.13000E+02
  0.62435E+00  0.98430E+00  0.13007E+02
  0.55734E+00  0.97575E+00  0.13007E+02
  0.55734E+00  0.97574E+00  0.13000E+02
  0.61793E+00  0.95985E+00  0.13000E+02
  0.61794E+00  0.95986E+00  0.13007E+02
 1 2 3 4
 1 5 8 4
 5 6 7 8
 2 3 7 6
 4 8 7 3
 1 2 6 5
ZONE NODES=8, ELEMENTS = 6, DATAPACKING=POINT, ZONETYPE=FETETRAHEDRON
  0.56375E+00  0.10002E+01  0.13000E+02
  0.56375E+00  0.10002E+01  0.12998E+02
  0.59398E+00  0.99225E+00  0.12998E+02
  0.59398E+00  0.99226E+00  0.13000E+02
  0.56209E+00  0.99384E+00  0.13000E+02
  0.56209E+00  0.99384E+00  0.12998E+02
  0.59232E+00  0.98591E+00  0.12998E+02
  0.59232E+00  0.98591E+00  0.13000E+02
 1 2 3 4
 1 5 8 4
 5 6 7 8
 2 3 7 6
 4 8 7 3
 1 2 6 5
ZONE NODES=8, ELEMENTS = 6, DATAPACKING=POINT, ZONETYPE=FETETRAHEDRON
  0.59398E+00  0.99226E+00  0.13000E+02
  0.59398E+00  0.99225E+00  0.12998E+02
  0.62435E+00  0.98429E+00  0.12998E+02
  0.62435E+00  0.98429E+00  0.13000E+02
  0.59232E+00  0.98591E+00  0.13000E+02
  0.59232E+00  0.98591E+00  0.12998E+02
  0.62268E+00  0.97794E+00  0.12998E+02
  0.62268E+00  0.97795E+00  0.13000E+02
 1 2 3 4
 1 5 8 4
 5 6 7 8
 2 3 7 6
 4 8 7 3
 1 2 6 5
ZONE NODES=8, ELEMENTS = 6, DATAPACKING=POINT, ZONETYPE=FETETRAHEDRON
  0.56209E+00  0.99384E+00  0.13000E+02
  0.56209E+00  0.99384E+00  0.13000E+02
  0.62268E+00  0.97795E+00  0.13000E+02
  0.62268E+00  0.97795E+00  0.13000E+02
  0.55734E+00  0.97574E+00  0.13000E+02
  0.55734E+00  0.97574E+00  0.13000E+02
  0.61793E+00  0.95985E+00  0.13000E+02
  0.61793E+00  0.95985E+00  0.13000E+02
 1 2 3 4
 1 5 8 4
 5 6 7 8
 2 3 7 6
 4 8 7 3
 1 2 6 5
ZONE NODES=8, ELEMENTS = 6, DATAPACKING=POINT, ZONETYPE=FETETRAHEDRON
  0.56209E+00  0.99384E+00  0.13000E+02
  0.56209E+00  0.99384E+00  0.12998E+02
  0.62268E+00  0.97794E+00  0.12998E+02
  0.62268E+00  0.97795E+00  0.13000E+02
  0.55734E+00  0.97574E+00  0.13000E+02
  0.55734E+00  0.97574E+00  0.12998E+02
  0.61793E+00  0.95985E+00  0.12998E+02
  0.61793E+00  0.95985E+00  0.13000E+02
 1 2 3 4
 1 5 8 4
 5 6 7 8
 2 3 7 6
 4 8 7 3
 1 2 6 5
ZONE NODES=8, ELEMENTS = 6, DATAPACKING=POINT, ZONETYPE=FETETRAHEDRON
  0.62992E+00  0.10055E+01  0.13006E+02
  0.62991E+00  0.10055E+01  0.13000E+02
  0.66029E+00  0.99756E+00  0.13000E+02
  0.66029E+00  0.99757E+00  0.13006E+02
  0.62435E+00  0.98430E+00  0.13007E+02
  0.62435E+00  0.98429E+00  0.13000E+02
  0.65472E+00  0.97633E+00  0.13000E+02
  0.65472E+00  0.97634E+00  0.13007E+02
 1 2 3 4
 1 5 8 4
 5 6 7 8
 2 3 7 6
 4 8 7 3
 1 2 6 5
ZONE NODES=8, ELEMENTS = 6, DATAPACKING=POINT, ZONETYPE=FETETRAHEDRON
  0.62991E+00  0.10055E+01  0.13000E+02
  0.62991E+00  0.10055E+01  0.12998E+02
  0.66029E+00  0.99755E+00  0.12998E+02
  0.66029E+00  0.99756E+00  0.13000E+02
  0.62435E+00  0.98429E+00  0.13000E+02
  0.62435E+00  0.98429E+00  0.12998E+02
  0.65472E+00  0.97632E+00  0.12998E+02
  0.65472E+00  0.97633E+00  0.13000E+02
 1 2 3 4
 1 5 8 4
 5 6 7 8
 2 3 7 6
 4 8 7 3
 1 2 6 5
ZONE NODES=8, ELEMENTS = 6, DATAPACKING=POINT, ZONETYPE=FETETRAHEDRON
  0.62435E+00  0.98430E+00  0.13007E+02
  0.62435E+00  0.98429E+00  0.13000E+02
  0.65472E+00  0.97633E+00  0.13000E+02
  0.65472E+00  0.97634E+00  0.13007E+02
  0.62385E+00  0.98239E+00  0.13007E+02
  0.62384E+00  0.98238E+00  0.13000E+02
  0.65422E+00  0.97442E+00  0.13000E+02
  0.65422E+00  0.97443E+00  0.13007E+02
 1 2 3 4
 1 5 8 4
 5 6 7 8
 2 3 7 6
 4 8 7 3
 1 2 6 5
ZONE NODES=8, ELEMENTS = 6, DATAPACKING=POINT, ZONETYPE=FETETRAHEDRON
  0.62435E+00  0.98429E+00  0.13000E+02
  0.62435E+00  0.98429E+00  0.12998E+02
  0.65472E+00  0.97632E+00  0.12998E+02
  0.65472E+00  0.97633E+00  0.13000E+02
  0.62384E+00  0.98238E+00  0.13000E+02
  0.62384E+00  0.98238E+00  0.12998E+02
  0.65422E+00  0.97441E+00  0.12998E+02
  0.65422E+00  0.97442E+00  0.13000E+02
 1 2 3 4
 1 5 8 4
 5 6 7 8
 2 3 7 6
 4 8 7 3
 1 2 6 5
ZONE NODES=8, ELEMENTS = 6, DATAPACKING=POINT, ZONETYPE=FETETRAHEDRON
  0.66029E+00  0.99757E+00  0.13006E+02
  0.66029E+00  0.99756E+00  0.13000E+02
  0.69055E+00  0.98962E+00  0.13000E+02