TITLE = "Mask Points"
VARIABLES = "x","y","z"
ZONE I=1566,J=2,K=1, DATAPACKING=POINT
  0.16263E+00  0.16263E+00  0.11270E+00
  0.16263E+00  0.16263E+00  0.50000E+00
  0.16263E+00  0.16263E+00  0.88730E+00
  0.24466E+00  0.80599E-01  0.11270E+00
  0.24466E+00  0.80599E-01  0.50000E+00
  0.24466E+00  0.80599E-01  0.88730E+00
  0.29492E+00  0.48828E-01  0.11270E+00
  0.32669E+00  0.48828E-01  0.11270E+00
  0.26315E+00  0.80599E-01  0.11270E+00
  0.29492E+00  0.80599E-01  0.11270E+00
  0.32669E+00  0.80599E-01  0.11270E+00
  0.29492E+00  0.48828E-01  0.50000E+00
  0.32669E+00  0.48828E-01  0.50000E+00
  0.26315E+00  0.80599E-01  0.50000E+00
  0.29492E+00  0.80599E-01  0.50000E+00
  0.32669E+00  0.80599E-01  0.50000E+00
  0.29492E+00  0.48828E-01  0.88730E+00
  0.32669E+00  0.48828E-01  0.88730E+00
  0.26315E+00  0.80599E-01  0.88730E+00
  0.29492E+00  0.80599E-01  0.88730E+00
  0.32669E+00  0.80599E-01  0.88730E+00
  0.21289E+00  0.99089E-01  0.11270E+00
  0.24466E+00  0.99089E-01  0.11270E+00
  0.18112E+00  0.13086E+00  0.11270E+00
  0.21289E+00  0.13086E+00  0.11270E+00
  0.24466E+00  0.13086E+00  0.11270E+00
  0.18112E+00  0.16263E+00  0.11270E+00
  0.21289E+00  0.16263E+00  0.11270E+00
  0.24466E+00  0.16263E+00  0.11270E+00
  0.21289E+00  0.99089E-01  0.50000E+00
  0.24466E+00  0.99089E-01  0.50000E+00
  0.18112E+00  0.13086E+00  0.50000E+00
  0.21289E+00  0.13086E+00  0.50000E+00
  0.24466E+00  0.13086E+00  0.50000E+00
  0.18112E+00  0.16263E+00  0.50000E+00
  0.21289E+00  0.16263E+00  0.50000E+00
  0.24466E+00  0.16263E+00  0.50000E+00
  0.21289E+00  0.99089E-01  0.88730E+00
  0.24466E+00  0.99089E-01  0.88730E+00
  0.18112E+00  0.13086E+00  0.88730E+00
  0.21289E+00  0.13086E+00  0.88730E+00
  0.24466E+00  0.13086E+00  0.88730E+00
  0.18112E+00  0.16263E+00  0.88730E+00
  0.21289E+00  0.16263E+00  0.88730E+00
  0.24466E+00  0.16263E+00  0.88730E+00
  0.26315E+00  0.99089E-01  0.11270E+00
  0.29492E+00  0.99089E-01  0.11270E+00
  0.32669E+00  0.99089E-01  0.11270E+00
  0.26315E+00  0.13086E+00  0.11270E+00
  0.29492E+00  0.13086E+00  0.11270E+00
  0.32669E+00  0.13086E+00  0.11270E+00
  0.26315E+00  0.16263E+00  0.11270E+00
  0.29492E+00  0.16263E+00  0.11270E+00
  0.32669E+00  0.16263E+00  0.11270E+00
  0.26315E+00  0.99089E-01  0.50000E+00
  0.29492E+00  0.99089E-01  0.50000E+00
  0.32669E+00  0.99089E-01  0.50000E+00
  0.26315E+00  0.13086E+00  0.50000E+00
  0.29492E+00  0.13086E+00  0.50000E+00
  0.32669E+00  0.13086E+00  0.50000E+00
  0.26315E+00  0.16263E+00  0.50000E+00
  0.29492E+00  0.16263E+00  0.50000E+00
  0.32669E+00  0.16263E+00  0.50000E+00
  0.26315E+00  0.99089E-01  0.88730E+00
  0.29492E+00  0.99089E-01  0.88730E+00
  0.32669E+00  0.99089E-01  0.88730E+00
  0.26315E+00  0.13086E+00  0.88730E+00
  0.29492E+00  0.13086E+00  0.88730E+00
  0.32669E+00  0.13086E+00  0.88730E+00
  0.26315E+00  0.16263E+00  0.88730E+00
  0.29492E+00  0.16263E+00  0.88730E+00
  0.32669E+00  0.16263E+00  0.88730E+00
  0.37695E+00  0.17058E-01  0.11270E+00
  0.40872E+00  0.17058E-01  0.11270E+00
  0.34518E+00  0.48828E-01  0.11270E+00
  0.37695E+00  0.48828E-01  0.11270E+00
  0.40872E+00  0.48828E-01  0.11270E+00
  0.34518E+00  0.80599E-01  0.11270E+00
  0.37695E+00  0.80599E-01  0.11270E+00
  0.40872E+00  0.80599E-01  0.11270E+00
  0.37695E+00  0.17058E-01  0.50000E+00
  0.40872E+00  0.17058E-01  0.50000E+00
  0.34518E+00  0.48828E-01  0.50000E+00
  0.37695E+00  0.48828E-01  0.50000E+00
  0.40872E+00  0.48828E-01  0.50000E+00
  0.34518E+00  0.80599E-01  0.50000E+00
  0.37695E+00  0.80599E-01  0.50000E+00
  0.40872E+00  0.80599E-01  0.50000E+00
  0.37695E+00  0.17058E-01  0.88730E+00
  0.40872E+00  0.17058E-01  0.88730E+00
  0.34518E+00  0.48828E-01  0.88730E+00
  0.37695E+00  0.48828E-01  0.88730E+00
  0.40872E+00  0.48828E-01  0.88730E+00
  0.34518E+00  0.80599E-01  0.88730E+00
  0.37695E+00  0.80599E-01  0.88730E+00
  0.40872E+00  0.80599E-01  0.88730E+00
  0.42721E+00  0.17058E-01  0.11270E+00
  0.45898E+00  0.17058E-01  0.11270E+00
  0.49075E+00  0.17058E-01  0.11270E+00
  0.42721E+00  0.48828E-01  0.11270E+00
  0.45898E+00  0.48828E-01  0.11270E+00
  0.49075E+00  0.48828E-01  0.11270E+00
  0.42721E+00  0.80599E-01  0.11270E+00
  0.45898E+00  0.80599E-01  0.11270E+00
  0.49075E+00  0.80599E-01  0.11270E+00
  0.42721E+00  0.17058E-01  0.50000E+00
  0.45898E+00  0.17058E-01  0.50000E+00
  0.49075E+00  0.17058E-01  0.50000E+00
  0.42721E+00  0.48828E-01  0.50000E+00
  0.45898E+00  0.48828E-01  0.50000E+00
  0.49075E+00  0.48828E-01  0.50000E+00
  0.42721E+00  0.80599E-01  0.50000E+00
  0.45898E+00  0.80599E-01  0.50000E+00
  0.49075E+00  0.80599E-01  0.50000E+00
  0.42721E+00  0.17058E-01  0.88730E+00
  0.45898E+00  0.17058E-01  0.88730E+00
  0.49075E+00  0.17058E-01  0.88730E+00
  0.42721E+00  0.48828E-01  0.88730E+00
  0.45898E+00  0.48828E-01  0.88730E+00
  0.49075E+00  0.48828E-01  0.88730E+00
  0.42721E+00  0.80599E-01  0.88730E+00
  0.45898E+00  0.80599E-01  0.88730E+00
  0.49075E+00  0.80599E-01  0.88730E+00
  0.34518E+00  0.99089E-01  0.11270E+00
  0.37695E+00  0.99089E-01  0.11270E+00
  0.40872E+00  0.99089E-01  0.11270E+00
  0.34518E+00  0.13086E+00  0.11270E+00
  0.37695E+00  0.13086E+00  0.11270E+00
  0.40872E+00  0.13086E+00  0.11270E+00
  0.34518E+00  0.16263E+00  0.11270E+00
  0.37695E+00  0.16263E+00  0.11270E+00
  0.40872E+00  0.16263E+00  0.11270E+00
  0.34518E+00  0.99089E-01  0.50000E+00
  0.37695E+00  0.99089E-01  0.50000E+00
  0.40872E+00  0.99089E-01  0.50000E+00
  0.34518E+00  0.13086E+00  0.50000E+00
  0.37695E+00  0.13086E+00  0.50000E+00
  0.40872E+00  0.13086E+00  0.50000E+00
  0.34518E+00  0.16263E+00  0.50000E+00
  0.37695E+00  0.16263E+00  0.50000E+00
  0.40872E+00  0.16263E+00  0.50000E+00
  0.34518E+00  0.99089E-01  0.88730E+00
  0.37695E+00  0.99089E-01  0.88730E+00
  0.40872E+00  0.99089E-01  0.88730E+00
  0.34518E+00  0.13086E+00  0.88730E+00
  0.37695E+00  0.13086E+00  0.88730E+00
  0.40872E+00  0.13086E+00  0.88730E+00
  0.34518E+00  0.16263E+00  0.88730E+00
  0.37695E+00  0.16263E+00  0.88730E+00
  0.40872E+00  0.16263E+00  0.88730E+00
  0.42721E+00  0.99089E-01  0.11270E+00
  0.45898E+00  0.99089E-01  0.11270E+00
  0.49075E+00  0.99089E-01  0.11270E+00
  0.42721E+00  0.13086E+00  0.11270E+00
  0.45898E+00  0.13086E+00  0.11270E+00
  0.49075E+00  0.13086E+00  0.11270E+00
  0.42721E+00  0.16263E+00  0.11270E+00
  0.45898E+00  0.16263E+00  0.11270E+00
  0.49075E+00  0.16263E+00  0.11270E+00
  0.42721E+00  0.99089E-01  0.50000E+00
  0.45898E+00  0.99089E-01  0.50000E+00
  0.49075E+00  0.99089E-01  0.50000E+00
  0.42721E+00  0.13086E+00  0.50000E+00
  0.45898E+00  0.13086E+00  0.50000E+00
  0.49075E+00  0.13086E+00  0.50000E+00
  0.42721E+00  0.16263E+00  0.50000E+00
  0.45898E+00  0.16263E+00  0.50000E+00
  0.49075E+00  0.16263E+00  0.50000E+00
  0.42721E+00  0.99089E-01  0.88730E+00
  0.45898E+00  0.99089E-01  0.88730E+00
  0.49075E+00  0.99089E-01  0.88730E+00
  0.42721E+00  0.13086E+00  0.88730E+00
  0.45898E+00  0.13086E+00  0.88730E+00
  0.49075E+00  0.13086E+00  0.88730E+00
  0.42721E+00  0.16263E+00  0.88730E+00
  0.45898E+00  0.16263E+00  0.88730E+00
  0.49075E+00  0.16263E+00  0.88730E+00
  0.80599E-01  0.24466E+00  0.11270E+00
  0.80599E-01  0.24466E+00  0.50000E+00
  0.80599E-01  0.24466E+00  0.88730E+00
  0.13086E+00  0.18112E+00  0.11270E+00
  0.16263E+00  0.18112E+00  0.11270E+00
  0.99089E-01  0.21289E+00  0.11270E+00
  0.13086E+00  0.21289E+00  0.11270E+00
  0.16263E+00  0.21289E+00  0.11270E+00
  0.99089E-01  0.24466E+00  0.11270E+00
  0.13086E+00  0.24466E+00  0.11270E+00
  0.16263E+00  0.24466E+00  0.11270E+00
  0.13086E+00  0.18112E+00  0.50000E+00
  0.16263E+00  0.18112E+00  0.50000E+00
  0.99089E-01  0.21289E+00  0.50000E+00
  0.13086E+00  0.21289E+00  0.50000E+00
  0.16263E+00  0.21289E+00  0.50000E+00
  0.99089E-01  0.24466E+00  0.50000E+00
  0.13086E+00  0.24466E+00  0.50000E+00
  0.16263E+00  0.24466E+00  0.50000E+00
  0.13086E+00  0.18112E+00  0.88730E+00
  0.16263E+00  0.18112E+00  0.88730E+00
  0.99089E-01  0.21289E+00  0.88730E+00
  0.13086E+00  0.21289E+00  0.88730E+00
  0.16263E+00  0.21289E+00  0.88730E+00
  0.99089E-01  0.24466E+00  0.88730E+00
  0.13086E+00  0.24466E+00  0.88730E+00
  0.16263E+00  0.24466E+00  0.88730E+00
  0.80599E-01  0.26315E+00  0.11270E+00
  0.48828E-01  0.29492E+00  0.11270E+00
  0.80599E-01  0.29492E+00  0.11270E+00
  0.48828E-01  0.32669E+00  0.11270E+00
  0.80599E-01  0.32669E+00  0.11270E+00
  0.80599E-01  0.26315E+00  0.50000E+00
  0.48828E-01  0.29492E+00  0.50000E+00
  0.80599E-01  0.29492E+00  0.50000E+00
  0.48828E-01  0.32669E+00  0.50000E+00
  0.80599E-01  0.32669E+00  0.50000E+00
  0.80599E-01  0.26315E+00  0.88730E+00
  0.48828E-01  0.29492E+00  0.88730E+00
  0.80599E-01  0.29492E+00  0.88730E+00
  0.48828E-01  0.32669E+00  0.88730E+00
  0.80599E-01  0.32669E+00  0.88730E+00
  0.99089E-01  0.26315E+00  0.11270E+00
  0.13086E+00  0.26315E+00  0.11270E+00
  0.16263E+00  0.26315E+00  0.11270E+00
  0.99089E-01  0.29492E+00  0.11270E+00
  0.13086E+00  0.29492E+00  0.11270E+00
  0.16263E+00  0.29492E+00  0.11270E+00
  0.99089E-01  0.32669E+00  0.11270E+00
  0.13086E+00  0.32669E+00  0.11270E+00
  0.16263E+00  0.32669E+00  0.11270E+00
  0.99089E-01  0.26315E+00  0.50000E+00
  0.13086E+00  0.26315E+00  0.50000E+00
  0.16263E+00  0.26315E+00  0.50000E+00
  0.99089E-01  0.29492E+00  0.50000E+00
  0.13086E+00  0.29492E+00  0.50000E+00
  0.16263E+00  0.29492E+00  0.50000E+00
  0.99089E-01  0.32669E+00  0.50000E+00
  0.13086E+00  0.32669E+00  0.50000E+00
  0.16263E+00  0.32669E+00  0.50000E+00
  0.99089E-01  0.26315E+00  0.88730E+00
  0.13086E+00  0.26315E+00  0.88730E+00
  0.16263E+00  0.26315E+00  0.88730E+00
  0.99089E-01  0.29492E+00  0.88730E+00
  0.13086E+00  0.29492E+00  0.88730E+00
  0.16263E+00  0.29492E+00  0.88730E+00
  0.99089E-01  0.32669E+00  0.88730E+00
  0.13086E+00  0.32669E+00  0.88730E+00
  0.16263E+00  0.32669E+00  0.88730E+00
  0.48828E-01  0.34518E+00  0.11270E+00
  0.80599E-01  0.34518E+00  0.11270E+00
  0.17058E-01  0.37695E+00  0.11270E+00
  0.48828E-01  0.37695E+00  0.11270E+00
  0.80599E-01  0.37695E+00  0.11270E+00
  0.17058E-01  0.40872E+00  0.11270E+00
  0.48828E-01  0.40872E+00  0.11270E+00
  0.80599E-01  0.40872E+00  0.11270E+00
  0.48828E-01  0.34518E+00  0.50000E+00
  0.80599E-01  0.34518E+00  0.50000E+00
  0.17058E-01  0.37695E+00  0.50000E+00
  0.48828E-01  0.37695E+00  0.50000E+00
  0.80599E-01  0.37695E+00  0.50000E+00
  0.17058E-01  0.40872E+00  0.50000E+00
  0.48828E-01  0.40872E+00  0.50000E+00
  0.80599E-01  0.40872E+00  0.50000E+00
  0.48828E-01  0.34518E+00  0.88730E+00
  0.80599E-01  0.34518E+00  0.88730E+00
  0.17058E-01  0.37695E+00  0.88730E+00
  0.48828E-01  0.37695E+00  0.88730E+00
  0.80599E-01  0.37695E+00  0.88730E+00
  0.17058E-01  0.40872E+00  0.88730E+00
  0.48828E-01  0.40872E+00  0.88730E+00
  0.80599E-01  0.40872E+00  0.88730E+00
  0.99089E-01  0.34518E+00  0.11270E+00
  0.13086E+00  0.34518E+00  0.11270E+00
  0.16263E+00  0.34518E+00  0.11270E+00
  0.99089E-01  0.37695E+00  0.11270E+00
  0.13086E+00  0.37695E+00  0.11270E+00
  0.16263E+00  0.37695E+00  0.11270E+00
  0.99089E-01  0.40872E+00  0.11270E+00
  0.13086E+00  0.40872E+00  0.11270E+00
  0.16263E+00  0.40872E+00  0.11270E+00
  0.99089E-01  0.34518E+00  0.50000E+00
  0.13086E+00  0.34518E+00  0.50000E+00
  0.16263E+00  0.34518E+00  0.50000E+00
  0.99089E-01  0.37695E+00  0.50000E+00
  0.13086E+00  0.37695E+00  0.50000E+00
  0.16263E+00  0.37695E+00  0.50000E+00
  0.99089E-01  0.40872E+00  0.50000E+00
  0.13086E+00  0.40872E+00  0.50000E+00
  0.16263E+00  0.40872E+00  0.50000E+00
  0.99089E-01  0.34518E+00  0.88730E+00
  0.13086E+00  0.34518E+00  0.88730E+00
  0.16263E+00  0.34518E+00  0.88730E+00
  0.99089E-01  0.37695E+00  0.88730E+00
  0.13086E+00  0.37695E+00  0.88730E+00
  0.16263E+00  0.37695E+00  0.88730E+00
  0.99089E-01  0.40872E+00  0.88730E+00
  0.13086E+00  0.40872E+00  0.88730E+00
  0.16263E+00  0.40872E+00  0.88730E+00
  0.17058E-01  0.42721E+00  0.11270E+00
  0.48828E-01  0.42721E+00  0.11270E+00
  0.80599E-01  0.42721E+00  0.11270E+00
  0.17058E-01  0.45898E+00  0.11270E+00
  0.48828E-01  0.45898E+00  0.11270E+00
  0.80599E-01  0.45898E+00  0.11270E+00
  0.17058E-01  0.49075E+00  0.11270E+00
  0.48828E-01  0.49075E+00  0.11270E+00
  0.80599E-01  0.49075E+00  0.11270E+00
  0.17058E-01  0.42721E+00  0.50000E+00
  0.48828E-01  0.42721E+00  0.50000E+00
  0.80599E-01  0.42721E+00  0.50000E+00
  0.17058E-01  0.45898E+00  0.50000E+00
  0.48828E-01  0.45898E+00  0.50000E+00
  0.80599E-01  0.45898E+00  0.50000E+00
  0.17058E-01  0.49075E+00  0.50000E+00
  0.48828E-01  0.49075E+00  0.50000E+00
  0.80599E-01  0.49075E+00  0.50000E+00
  0.17058E-01  0.42721E+00  0.88730E+00
  0.48828E-01  0.42721E+00  0.88730E+00
  0.80599E-01  0.42721E+00  0.88730E+00
  0.17058E-01  0.45898E+00  0.88730E+00
  0.48828E-01  0.45898E+00  0.88730E+00
  0.80599E-01  0.45898E+00  0.88730E+00
  0.17058E-01  0.49075E+00  0.88730E+00
  0.48828E-01  0.49075E+00  0.88730E+00
  0.80599E-01  0.49075E+00  0.88730E+00
  0.99089E-01  0.42721E+00  0.11270E+00
  0.13086E+00  0.42721E+00  0.11270E+00
  0.16263E+00  0.42721E+00  0.11270E+00
  0.99089E-01  0.45898E+00  0.11270E+00
  0.13086E+00  0.45898E+00  0.11270E+00
  0.16263E+00  0.45898E+00  0.11270E+00
  0.99089E-01  0.49075E+00  0.11270E+00
  0.13086E+00  0.49075E+00  0.11270E+00
  0.16263E+00  0.49075E+00  0.11270E+00
  0.99089E-01  0.42721E+00  0.50000E+00
  0.13086E+00  0.42721E+00  0.50000E+00
  0.16263E+00  0.42721E+00  0.50000E+00
  0.99089E-01  0.45898E+00  0.50000E+00
  0.13086E+00  0.45898E+00  0.50000E+00
  0.16263E+00  0.45898E+00  0.50000E+00
  0.99089E-01  0.49075E+00  0.50000E+00
  0.13086E+00  0.49075E+00  0.50000E+00
  0.16263E+00  0.49075E+00  0.50000E+00
  0.99089E-01  0.42721E+00  0.88730E+00
  0.13086E+00  0.42721E+00  0.88730E+00
  0.16263E+00  0.42721E+00  0.88730E+00
  0.99089E-01  0.45898E+00  0.88730E+00
  0.13086E+00  0.45898E+00  0.88730E+00
  0.16263E+00  0.45898E+00  0.88730E+00
  0.99089E-01  0.49075E+00  0.88730E+00
  0.13086E+00  0.49075E+00  0.88730E+00
  0.16263E+00  0.49075E+00  0.88730E+00
  0.18112E+00  0.18112E+00  0.11270E+00
  0.21289E+00  0.18112E+00  0.11270E+00
  0.24466E+00  0.18112E+00  0.11270E+00
  0.18112E+00  0.21289E+00  0.11270E+00
  0.21289E+00  0.21289E+00  0.11270E+00
  0.24466E+00  0.21289E+00  0.11270E+00
  0.18112E+00  0.24466E+00  0.11270E+00
  0.21289E+00  0.24466E+00  0.11270E+00
  0.24466E+00  0.24466E+00  0.11270E+00
  0.18112E+00  0.18112E+00  0.50000E+00
  0.21289E+00  0.18112E+00  0.50000E+00
  0.24466E+00  0.18112E+00  0.50000E+00
  0.18112E+00  0.21289E+00  0.50000E+00
  0.21289E+00  0.21289E+00  0.50000E+00
  0.24466E+00  0.21289E+00  0.50000E+00
  0.18112E+00  0.24466E+00  0.50000E+00
  0.21289E+00  0.24466E+00  0.50000E+00
  0.24466E+00  0.24466E+00  0.50000E+00
  0.18112E+00  0.18112E+00  0.88730E+00
  0.21289E+00  0.18112E+00  0.88730E+00
  0.24466E+00  0.18112E+00  0.88730E+00
  0.18112E+00  0.21289E+00  0.88730E+00
  0.21289E+00  0.21289E+00  0.88730E+00
  0.24466E+00  0.21289E+00  0.88730E+00
  0.18112E+00  0.24466E+00  0.88730E+00
  0.21289E+00  0.24466E+00  0.88730E+00
  0.24466E+00  0.24466E+00  0.88730E+00
  0.26315E+00  0.18112E+00  0.11270E+00
  0.29492E+00  0.18112E+00  0.11270E+00
  0.32669E+00  0.18112E+00  0.11270E+00
  0.26315E+00  0.21289E+00  0.11270E+00
  0.29492E+00  0.21289E+00  0.11270E+00
  0.32669E+00  0.21289E+00  0.11270E+00
  0.26315E+00  0.24466E+00  0.11270E+00
  0.29492E+00  0.24466E+00  0.11270E+00
  0.32669E+00  0.24466E+00  0.11270E+00
  0.26315E+00  0.18112E+00  0.50000E+00
  0.29492E+00  0.18112E+00  0.50000E+00
  0.32669E+00  0.18112E+00  0.50000E+00
  0.26315E+00  0.21289E+00  0.50000E+00
  0.29492E+00  0.21289E+00  0.50000E+00
  0.32669E+00  0.21289E+00  0.50000E+00
  0.26315E+00  0.24466E+00  0.50000E+00
  0.29492E+00  0.24466E+00  0.50000E+00
  0.32669E+00  0.24466E+00  0.50000E+00
  0.26315E+00  0.18112E+00  0.88730E+00
  0.29492E+00  0.18112E+00  0.88730E+00
  0.32669E+00  0.18112E+00  0.88730E+00
  0.26315E+00  0.21289E+00  0.88730E+00
  0.29492E+00  0.21289E+00  0.88730E+00
  0.32669E+00  0.21289E+00  0.88730E+00
  0.26315E+00  0.24466E+00  0.88730E+00
  0.29492E+00  0.24466E+00  0.88730E+00
  0.32669E+00  0.24466E+00  0.88730E+00
  0.18112E+00  0.26315E+00  0.11270E+00
  0.21289E+00  0.26315E+00  0.11270E+00
  0.24466E+00  0.26315E+00  0.11270E+00
  0.18112E+00  0.29492E+00  0.11270E+00
  0.21289E+00  0.29492E+00  0.11270E+00
  0.24466E+00  0.29492E+00  0.11270E+00
  0.18112E+00  0.32669E+00  0.11270E+00
  0.21289E+00  0.32669E+00  0.11270E+00
  0.24466E+00  0.32669E+00  0.11270E+00
  0.18112E+00  0.26315E+00  0.50000E+00
  0.21289E+00  0.26315E+00  0.50000E+00
  0.24466E+00  0.26315E+00  0.50000E+00
  0.18112E+00  0.29492E+00  0.50000E+00
  0.21289E+00  0.29492E+00  0.50000E+00
  0.24466E+00  0.29492E+00  0.50000E+00
  0.18112E+00  0.32669E+00  0.50000E+00
  0.21289E+00  0.32669E+00  0.50000E+00
  0.24466E+00  0.32669E+00  0.50000E+00
  0.18112E+00  0.26315E+00  0.88730E+00
  0.21289E+00  0.26315E+00  0.88730E+00
  0.24466E+00  0.26315E+00  0.88730E+00
  0.18112E+00  0.29492E+00  0.88730E+00
  0.21289E+00  0.29492E+00  0.88730E+00
  0.24466E+00  0.29492E+00  0.88730E+00
  0.18112E+00  0.32669E+00  0.88730E+00
  0.21289E+00  0.32669E+00  0.88730E+00
  0.24466E+00  0.32669E+00  0.88730E+00
  0.26315E+00  0.26315E+00  0.11270E+00
  0.29492E+00  0.26315E+00  0.11270E+00
  0.32669E+00  0.26315E+00  0.11270E+00
  0.26315E+00  0.29492E+00  0.11270E+00
  0.29492E+00  0.29492E+00  0.11270E+00
  0.32669E+00  0.29492E+00  0.11270E+00
  0.26315E+00  0.32669E+00  0.11270E+00
  0.29492E+00  0.32669E+00  0.11270E+00
  0.32669E+00  0.32669E+00  0.11270E+00
  0.26315E+00  0.26315E+00  0.50000E+00
  0.29492E+00  0.26315E+00  0.50000E+00
  0.32669E+00  0.26315E+00  0.50000E+00
  0.26315E+00  0.29492E+00  0.50000E+00
  0.29492E+00  0.29492E+00  0.50000E+00
  0.32669E+00  0.29492E+00  0.50000E+00
  0.26315E+00  0.32669E+00  0.50000E+00
  0.29492E+00  0.32669E+00  0.50000E+00
  0.32669E+00  0.32669E+00  0.50000E+00
  0.26315E+00  0.26315E+00  0.88730E+00
  0.29492E+00  0.26315E+00  0.88730E+00
  0.32669E+00  0.26315E+00  0.88730E+00
  0.26315E+00  0.29492E+00  0.88730E+00
  0.29492E+00  0.29492E+00  0.88730E+00
  0.32669E+00  0.29492E+00  0.88730E+00
  0.26315E+00  0.32669E+00  0.88730E+00
  0.29492E+00  0.32669E+00  0.88730E+00
  0.32669E+00  0.32669E+00  0.88730E+00
  0.34518E+00  0.18112E+00  0.11270E+00
  0.37695E+00  0.18112E+00  0.11270E+00
  0.40872E+00  0.18112E+00  0.11270E+00
  0.34518E+00  0.21289E+00  0.11270E+00
  0.37695E+00  0.21289E+00  0.11270E+00
  0.40872E+00  0.21289E+00  0.11270E+00
  0.34518E+00  0.24466E+00  0.11270E+00
  0.37695E+00  0.24466E+00  0.11270E+00
  0.40872E+00  0.24466E+00  0.11270E+00
  0.34518E+00  0.18112E+00  0.50000E+00
  0.37695E+00  0.18112E+00  0.50000E+00
  0.40872E+00  0.18112E+00  0.50000E+00
  0.34518E+00  0.21289E+00  0.50000E+00
  0.37695E+00  0.21289E+00  0.50000E+00
  0.40872E+00  0.21289E+00  0.50000E+00
  0.34518E+00  0.24466E+00  0.50000E+00
  0.37695E+00  0.24466E+00  0.50000E+00
  0.40872E+00  0.24466E+00  0.50000E+00
  0.34518E+00  0.18112E+00  0.88730E+00
  0.37695E+00  0.18112E+00  0.88730E+00
  0.40872E+00  0.18112E+00  0.88730E+00
  0.34518E+00  0.21289E+00  0.88730E+00
  0.37695E+00  0.21289E+00  0.88730E+00
  0.40872E+00  0.21289E+00  0.88730E+00
  0.34518E+00  0.24466E+00  0.88730E+00
  0.37695E+00  0.24466E+00  0.88730E+00
  0.40872E+00  0.24466E+00  0.88730E+00
  0.42721E+00  0.18112E+00  0.11270E+00
  0.45898E+00  0.18112E+00  0.11270E+00
  0.49075E+00  0.18112E+00  0.11270E+00
  0.42721E+00  0.21289E+00  0.11270E+00
  0.45898E+00  0.21289E+00  0.11270E+00
  0.49075E+00  0.21289E+00  0.11270E+00
  0.42721E+00  0.24466E+00  0.11270E+00
  0.45898E+00  0.24466E+00  0.11270E+00
  0.49075E+00  0.24466E+00  0.11270E+00
  0.42721E+00  0.18112E+00  0.50000E+00
  0.45898E+00  0.18112E+00  0.50000E+00
  0.49075E+00  0.18112E+00  0.50000E+00
  0.42721E+00  0.21289E+00  0.50000E+00
  0.45898E+00  0.21289E+00  0.50000E+00
  0.49075E+00  0.21289E+00  0.50000E+00
  0.42721E+00  0.24466E+00  0.50000E+00
  0.45898E+00  0.24466E+00  0.50000E+00
  0.49075E+00  0.24466E+00  0.50000E+00
  0.42721E+00  0.18112E+00  0.88730E+00
  0.45898E+00  0.18112E+00  0.88730E+00
  0.49075E+00  0.18112E+00  0.88730E+00
  0.42721E+00  0.21289E+00  0.88730E+00
  0.45898E+00  0.21289E+00  0.88730E+00
  0.49075E+00  0.21289E+00  0.88730E+00
  0.42721E+00  0.24466E+00  0.88730E+00
  0.45898E+00  0.24466E+00  0.88730E+00
  0.49075E+00  0.24466E+00  0.88730E+00
  0.34518E+00  0.26315E+00  0.11270E+00
  0.37695E+00  0.26315E+00  0.11270E+00
  0.40872E+00  0.26315E+00  0.11270E+00
  0.34518E+00  0.29492E+00  0.11270E+00
  0.37695E+00  0.29492E+00  0.11270E+00
  0.40872E+00  0.29492E+00  0.11270E+00
  0.34518E+00  0.32669E+00  0.11270E+00
  0.37695E+00  0.32669E+00  0.11270E+00
  0.40872E+00  0.32669E+00  0.11270E+00
  0.34518E+00  0.26315E+00  0.50000E+00
  0.37695E+00  0.26315E+00  0.50000E+00
  0.40872E+00  0.26315E+00  0.50000E+00
  0.34518E+00  0.29492E+00  0.50000E+00
  0.37695E+00  0.29492E+00  0.50000E+00
  0.40872E+00  0.29492E+00  0.50000E+00
  0.34518E+00  0.32669E+00  0.50000E+00
  0.37695E+00  0.32669E+00  0.50000E+00
  0.40872E+00  0.32669E+00  0.50000E+00
  0.34518E+00  0.26315E+00  0.88730E+00
  0.37695E+00  0.26315E+00  0.88730E+00
  0.40872E+00  0.26315E+00  0.88730E+00
  0.34518E+00  0.29492E+00  0.88730E+00
  0.37695E+00  0.29492E+00  0.88730E+00
  0.40872E+00  0.29492E+00  0.88730E+00
  0.34518E+00  0.32669E+00  0.88730E+00
  0.37695E+00  0.32669E+00  0.88730E+00
  0.40872E+00  0.32669E+00  0.88730E+00
  0.42721E+00  0.26315E+00  0.11270E+00
  0.45898E+00  0.26315E+00  0.11270E+00
  0.49075E+00  0.26315E+00  0.11270E+00
  0.42721E+00  0.29492E+00  0.11270E+00
  0.45898E+00  0.29492E+00  0.11270E+00
  0.49075E+00  0.29492E+00  0.11270E+00
  0.42721E+00  0.32669E+00  0.11270E+00
  0.45898E+00  0.32669E+00  0.11270E+00
  0.49075E+00  0.32669E+00  0.11270E+00
  0.42721E+00  0.26315E+00  0.50000E+00
  0.45898E+00  0.26315E+00  0.50000E+00
  0.49075E+00  0.26315E+00  0.50000E+00
  0.42721E+00  0.29492E+00  0.50000E+00
  0.45898E+00  0.29492E+00  0.50000E+00
  0.49075E+00  0.29492E+00  0.50000E+00
  0.42721E+00  0.32669E+00  0.50000E+00
  0.45898E+00  0.32669E+00  0.50000E+00
  0.49075E+00  0.32669E+00  0.50000E+00
  0.42721E+00  0.26315E+00  0.88730E+00
  0.45898E+00  0.26315E+00  0.88730E+00
  0.49075E+00  0.26315E+00  0.88730E+00
  0.42721E+00  0.29492E+00  0.88730E+00
  0.45898E+00  0.29492E+00  0.88730E+00
  0.49075E+00  0.29492E+00  0.88730E+00
  0.42721E+00  0.32669E+00  0.88730E+00
  0.45898E+00  0.32669E+00  0.88730E+00
  0.49075E+00  0.32669E+00  0.88730E+00
  0.18112E+00  0.34518E+00  0.11270E+00
  0.21289E+00  0.34518E+00  0.11270E+00
  0.24466E+00  0.34518E+00  0.11270E+00
  0.18112E+00  0.37695E+00  0.11270E+00
  0.21289E+00  0.37695E+00  0.11270E+00
  0.24466E+00  0.37695E+00  0.11270E+00
  0.18112E+00  0.40872E+00  0.11270E+00
  0.21289E+00  0.40872E+00  0.11270E+00
  0.24466E+00  0.40872E+00  0.11270E+00
  0.18112E+00  0.34518E+00  0.50000E+00
  0.21289E+00  0.34518E+00  0.50000E+00
  0.24466E+00  0.34518E+00  0.50000E+00
  0.18112E+00  0.37695E+00  0.50000E+00
  0.21289E+00  0.37695E+00  0.50000E+00
  0.24466E+00  0.37695E+00  0.50000E+00
  0.18112E+00  0.40872E+00  0.50000E+00
  0.21289E+00  0.40872E+00  0.50000E+00
  0.24466E+00  0.40872E+00  0.50000E+00
  0.18112E+00  0.34518E+00  0.88730E+00
  0.21289E+00  0.34518E+00  0.88730E+00
  0.24466E+00  0.34518E+00  0.88730E+00
  0.18112E+00  0.37695E+00  0.88730E+00
  0.21289E+00  0.37695E+00  0.88730E+00
  0.24466E+00  0.37695E+00  0.88730E+00
  0.18112E+00  0.40872E+00  0.88730E+00
  0.21289E+00  0.40872E+00  0.88730E+00
  0.24466E+00  0.40872E+00  0.88730E+00
  0.26315E+00  0.34518E+00  0.11270E+00
  0.29492E+00  0.34518E+00  0.11270E+00
  0.32669E+00  0.34518E+00  0.11270E+00
  0.26315E+00  0.37695E+00  0.11270E+00
  0.29492E+00  0.37695E+00  0.11270E+00
  0.32669E+00  0.37695E+00  0.11270E+00
  0.26315E+00  0.40872E+00  0.11270E+00
  0.29492E+00  0.40872E+00  0.11270E+00
  0.32669E+00  0.40872E+00  0.11270E+00
  0.26315E+00  0.34518E+00  0.50000E+00
  0.29492E+00  0.34518E+00  0.50000E+00
  0.32669E+00  0.34518E+00  0.50000E+00
  0.26315E+00  0.37695E+00  0.50000E+00
  0.29492E+00  0.37695E+00  0.50000E+00
  0.32669E+00  0.37695E+00  0.50000E+00
  0.26315E+00  0.40872E+00  0.50000E+00
  0.29492E+00  0.40872E+00  0.50000E+00
  0.32669E+00  0.40872E+00  0.50000E+00
  0.26315E+00  0.34518E+00  0.88730E+00
  0.29492E+00  0.34518E+00  0.88730E+00
  0.32669E+00  0.34518E+00  0.88730E+00
  0.26315E+00  0.37695E+00  0.88730E+00
  0.29492E+00  0.37695E+00  0.88730E+00
  0.32669E+00  0.37695E+00  0.88730E+00
  0.26315E+00  0.40872E+00  0.88730E+00
  0.29492E+00  0.40872E+00  0.88730E+00
  0.32669E+00  0.40872E+00  0.88730E+00
  0.18112E+00  0.42721E+00  0.11270E+00
  0.21289E+00  0.42721E+00  0.11270E+00
  0.24466E+00  0.42721E+00  0.11270E+00
  0.18112E+00  0.45898E+00  0.11270E+00
  0.21289E+00  0.45898E+00  0.11270E+00
  0.24466E+00  0.45898E+00  0.11270E+00
  0.18112E+00  0.49075E+00  0.11270E+00
  0.21289E+00  0.49075E+00  0.11270E+00
  0.24466E+00  0.49075E+00  0.11270E+00
  0.18112E+00  0.42721E+00  0.50000E+00
  0.21289E+00  0.42721E+00  0.50000E+00
  0.24466E+00  0.42721E+00  0.50000E+00
  0.18112E+00  0.45898E+00  0.50000E+00
  0.21289E+00  0.45898E+00  0.50000E+00
  0.24466E+00  0.45898E+00  0.50000E+00
  0.18112E+00  0.49075E+00  0.50000E+00
  0.21289E+00  0.49075E+00  0.50000E+00
  0.24466E+00  0.49075E+00  0.50000E+00
  0.18112E+00  0.42721E+00  0.88730E+00
  0.21289E+00  0.42721E+00  0.88730E+00
  0.24466E+00  0.42721E+00  0.88730E+00
  0.18112E+00  0.45898E+00  0.88730E+00
  0.21289E+00  0.45898E+00  0.88730E+00
  0.24466E+00  0.45898E+00  0.88730E+00
  0.18112E+00  0.49075E+00  0.88730E+00
  0.21289E+00  0.49075E+00  0.88730E+00
  0.24466E+00  0.49075E+00  0.88730E+00
  0.26315E+00  0.42721E+00  0.11270E+00
  0.29492E+00  0.42721E+00  0.11270E+00
  0.32669E+00  0.42721E+00  0.11270E+00
  0.26315E+00  0.45898E+00  0.11270E+00
  0.29492E+00  0.45898E+00  0.11270E+00
  0.32669E+00  0.45898E+00  0.11270E+00
  0.26315E+00  0.49075E+00  0.11270E+00
  0.29492E+00  0.49075E+00  0.11270E+00
  0.32669E+00  0.49075E+00  0.11270E+00
  0.26315E+00  0.42721E+00  0.50000E+00
  0.29492E+00  0.42721E+00  0.50000E+00
  0.32669E+00  0.42721E+00  0.50000E+00
  0.26315E+00  0.45898E+00  0.50000E+00
  0.29492E+00  0.45898E+00  0.50000E+00
  0.32669E+00  0.45898E+00  0.50000E+00
  0.26315E+00  0.49075E+00  0.50000E+00
  0.29492E+00  0.49075E+00  0.50000E+00
  0.32669E+00  0.49075E+00  0.50000E+00
  0.26315E+00  0.42721E+00  0.88730E+00
  0.29492E+00  0.42721E+00  0.88730E+00
  0.32669E+00  0.42721E+00  0.88730E+00
  0.26315E+00  0.45898E+00  0.88730E+00
  0.29492E+00  0.45898E+00  0.88730E+00
  0.32669E+00  0.45898E+00  0.88730E+00
  0.26315E+00  0.49075E+00  0.88730E+00
  0.29492E+00  0.49075E+00  0.88730E+00
  0.32669E+00  0.49075E+00  0.88730E+00
  0.34518E+00  0.34518E+00  0.11270E+00
  0.37695E+00  0.34518E+00  0.11270E+00
  0.40872E+00  0.34518E+00  0.11270E+00
  0.34518E+00  0.37695E+00  0.11270E+00
  0.37695E+00  0.37695E+00  0.11270E+00
  0.40872E+00  0.37695E+00  0.11270E+00
  0.34518E+00  0.40872E+00  0.11270E+00
  0.37695E+00  0.40872E+00  0.11270E+00
  0.40872E+00  0.40872E+00  0.11270E+00
  0.34518E+00  0.34518E+00  0.50000E+00
  0.37695E+00  0.34518E+00  0.50000E+00
  0.40872E+00  0.34518E+00  0.50000E+00
  0.34518E+00  0.37695E+00  0.50000E+00
  0.37695E+00  0.37695E+00  0.50000E+00
  0.40872E+00  0.37695E+00  0.50000E+00
  0.34518E+00  0.40872E+00  0.50000E+00
  0.37695E+00  0.40872E+00  0.50000E+00
  0.40872E+00  0.40872E+00  0.50000E+00
  0.34518E+00  0.34518E+00  0.88730E+00
  0.37695E+00  0.34518E+00  0.88730E+00
  0.40872E+00  0.34518E+00  0.88730E+00
  0.34518E+00  0.37695E+00  0.88730E+00
  0.37695E+00  0.37695E+00  0.88730E+00
  0.40872E+00  0.37695E+00  0.88730E+00
  0.34518E+00  0.40872E+00  0.88730E+00
  0.37695E+00  0.40872E+00  0.88730E+00
  0.40872E+00  0.40872E+00  0.88730E+00
  0.42721E+00  0.34518E+00  0.11270E+00
  0.45898E+00  0.34518E+00  0.11270E+00
  0.49075E+00  0.34518E+00  0.11270E+00
  0.42721E+00  0.37695E+00  0.11270E+00
  0.45898E+00  0.37695E+00  0.11270E+00
  0.49075E+00  0.37695E+00  0.11270E+00
  0.42721E+00  0.40872E+00  0.11270E+00
  0.45898E+00  0.40872E+00  0.11270E+00
  0.49075E+00  0.40872E+00  0.11270E+00
  0.42721E+00  0.34518E+00  0.50000E+00
  0.45898E+00  0.34518E+00  0.50000E+00
  0.49075E+00  0.34518E+00  0.50000E+00
  0.42721E+00  0.37695E+00  0.50000E+00
  0.45898E+00  0.37695E+00  0.50000E+00
  0.49075E+00  0.37695E+00  0.50000E+00
  0.42721E+00  0.40872E+00  0.50000E+00
  0.45898E+00  0.40872E+00  0.50000E+00
  0.49075E+00  0.40872E+00  0.50000E+00
  0.42721E+00  0.34518E+00  0.88730E+00
  0.45898E+00  0.34518E+00  0.88730E+00
  0.49075E+00  0.34518E+00  0.88730E+00
  0.42721E+00  0.37695E+00  0.88730E+00
  0.45898E+00  0.37695E+00  0.88730E+00
  0.49075E+00  0.37695E+00  0.88730E+00
  0.42721E+00  0.40872E+00  0.88730E+00
  0.45898E+00  0.40872E+00  0.88730E+00
  0.49075E+00  0.40872E+00  0.88730E+00
  0.34518E+00  0.42721E+00  0.11270E+00
  0.37695E+00  0.42721E+00  0.11270E+00
  0.40872E+00  0.42721E+00  0.11270E+00
  0.34518E+00  0.45898E+00  0.11270E+00
  0.37695E+00  0.45898E+00  0.11270E+00
  0.40872E+00  0.45898E+00  0.11270E+00
  0.34518E+00  0.49075E+00  0.11270E+00
  0.37695E+00  0.49075E+00  0.11270E+00
  0.40872E+00  0.49075E+00  0.11270E+00
  0.34518E+00  0.42721E+00  0.50000E+00
  0.37695E+00  0.42721E+00  0.50000E+00
  0.40872E+00  0.42721E+00  0.50000E+00
  0.34518E+00  0.45898E+00  0.50000E+00
  0.37695E+00  0.45898E+00  0.50000E+00
  0.40872E+00  0.45898E+00  0.50000E+00
  0.34518E+00  0.49075E+00  0.50000E+00
  0.37695E+00  0.49075E+00  0.50000E+00
  0.40872E+00  0.49075E+00  0.50000E+00