TITLE = "Mask Points"
VARIABLES = "x","y","z"
ZONE I=47520,J=2,K=1, DATAPACKING=POINT
  0.85947E+00  0.68974E+00  0.80126E-02
  0.86183E+00  0.68442E+00  0.80126E-02
  0.86492E+00  0.67749E+00  0.80126E-02
  0.86729E+00  0.67218E+00  0.80126E-02
  0.86476E+00  0.69201E+00  0.80126E-02
  0.86695E+00  0.68662E+00  0.80126E-02
  0.86981E+00  0.67958E+00  0.80126E-02
  0.87200E+00  0.67419E+00  0.80126E-02
  0.87165E+00  0.69498E+00  0.80126E-02
  0.87362E+00  0.68948E+00  0.80126E-02
  0.87619E+00  0.68231E+00  0.80126E-02
  0.87816E+00  0.67681E+00  0.80126E-02
  0.87694E+00  0.69726E+00  0.80126E-02
  0.87874E+00  0.69168E+00  0.80126E-02
  0.88108E+00  0.68440E+00  0.80126E-02
  0.88287E+00  0.67882E+00  0.80126E-02
  0.85947E+00  0.68974E+00  0.34331E-01
  0.86183E+00  0.68442E+00  0.34331E-01
  0.86492E+00  0.67749E+00  0.34331E-01
  0.86729E+00  0.67218E+00  0.34331E-01
  0.86476E+00  0.69201E+00  0.34331E-01
  0.86695E+00  0.68662E+00  0.34331E-01
  0.86981E+00  0.67958E+00  0.34331E-01
  0.87200E+00  0.67419E+00  0.34331E-01
  0.87165E+00  0.69498E+00  0.34331E-01
  0.87362E+00  0.68948E+00  0.34331E-01
  0.87619E+00  0.68231E+00  0.34331E-01
  0.87816E+00  0.67681E+00  0.34331E-01
  0.87694E+00  0.69726E+00  0.34331E-01
  0.87874E+00  0.69168E+00  0.34331E-01
  0.88108E+00  0.68440E+00  0.34331E-01
  0.88287E+00  0.67882E+00  0.34331E-01
  0.85947E+00  0.68974E+00  0.68669E-01
  0.86183E+00  0.68442E+00  0.68669E-01
  0.86492E+00  0.67749E+00  0.68669E-01
  0.86729E+00  0.67218E+00  0.68669E-01
  0.86476E+00  0.69201E+00  0.68669E-01
  0.86695E+00  0.68662E+00  0.68669E-01
  0.86981E+00  0.67958E+00  0.68669E-01
  0.87200E+00  0.67419E+00  0.68669E-01
  0.87165E+00  0.69498E+00  0.68669E-01
  0.87362E+00  0.68948E+00  0.68669E-01
  0.87619E+00  0.68231E+00  0.68669E-01
  0.87816E+00  0.67681E+00  0.68669E-01
  0.87694E+00  0.69726E+00  0.68669E-01
  0.87874E+00  0.69168E+00  0.68669E-01
  0.88108E+00  0.68440E+00  0.68669E-01
  0.88287E+00  0.67882E+00  0.68669E-01
  0.85947E+00  0.68974E+00  0.94987E-01
  0.86183E+00  0.68442E+00  0.94987E-01
  0.86492E+00  0.67749E+00  0.94987E-01
  0.86729E+00  0.67218E+00  0.94987E-01
  0.86476E+00  0.69201E+00  0.94987E-01
  0.86695E+00  0.68662E+00  0.94987E-01
  0.86981E+00  0.67958E+00  0.94987E-01
  0.87200E+00  0.67419E+00  0.94987E-01
  0.87165E+00  0.69498E+00  0.94987E-01
  0.87362E+00  0.68948E+00  0.94987E-01
  0.87619E+00  0.68231E+00  0.94987E-01
  0.87816E+00  0.67681E+00  0.94987E-01
  0.87694E+00  0.69726E+00  0.94987E-01
  0.87874E+00  0.69168E+00  0.94987E-01
  0.88108E+00  0.68440E+00  0.94987E-01
  0.88287E+00  0.67882E+00  0.94987E-01
  0.70518E+00  0.55649E+00  0.80126E-02
  0.71026E+00  0.55420E+00  0.80126E-02
  0.71689E+00  0.55121E+00  0.80126E-02
  0.72197E+00  0.54892E+00  0.80126E-02
  0.70525E+00  0.56102E+00  0.80126E-02
  0.71055E+00  0.55940E+00  0.80126E-02
  0.71747E+00  0.55728E+00  0.80126E-02
  0.72277E+00  0.55565E+00  0.80126E-02
  0.70533E+00  0.56693E+00  0.80126E-02
  0.71092E+00  0.56617E+00  0.80126E-02
  0.71822E+00  0.56519E+00  0.80126E-02
  0.72381E+00  0.56444E+00  0.80126E-02
  0.70540E+00  0.57145E+00  0.80126E-02
  0.71121E+00  0.57137E+00  0.80126E-02
  0.71879E+00  0.57126E+00  0.80126E-02
  0.72460E+00  0.57117E+00  0.80126E-02
  0.70518E+00  0.55649E+00  0.34331E-01
  0.71026E+00  0.55420E+00  0.34331E-01
  0.71689E+00  0.55121E+00  0.34331E-01
  0.72197E+00  0.54892E+00  0.34331E-01
  0.70525E+00  0.56102E+00  0.34331E-01
  0.71055E+00  0.55940E+00  0.34331E-01
  0.71747E+00  0.55728E+00  0.34331E-01
  0.72277E+00  0.55565E+00  0.34331E-01
  0.70533E+00  0.56693E+00  0.34331E-01
  0.71092E+00  0.56617E+00  0.34331E-01
  0.71822E+00  0.56519E+00  0.34331E-01
  0.72381E+00  0.56444E+00  0.34331E-01
  0.70540E+00  0.57145E+00  0.34331E-01
  0.71121E+00  0.57137E+00  0.34331E-01
  0.71879E+00  0.57126E+00  0.34331E-01
  0.72460E+00  0.57117E+00  0.34331E-01
  0.70518E+00  0.55649E+00  0.68669E-01
  0.71026E+00  0.55420E+00  0.68669E-01
  0.71689E+00  0.55121E+00  0.68669E-01
  0.72197E+00  0.54892E+00  0.68669E-01
  0.70525E+00  0.56102E+00  0.68669E-01
  0.71055E+00  0.55940E+00  0.68669E-01
  0.71747E+00  0.55728E+00  0.68669E-01
  0.72277E+00  0.55565E+00  0.68669E-01
  0.70533E+00  0.56693E+00  0.68669E-01
  0.71092E+00  0.56617E+00  0.68669E-01
  0.71822E+00  0.56519E+00  0.68669E-01
  0.72381E+00  0.56444E+00  0.68669E-01
  0.70540E+00  0.57145E+00  0.68669E-01
  0.71121E+00  0.57137E+00  0.68669E-01
  0.71879E+00  0.57126E+00  0.68669E-01
  0.72460E+00  0.57117E+00  0.68669E-01
  0.70518E+00  0.55649E+00  0.94987E-01
  0.71026E+00  0.55420E+00  0.94987E-01
  0.71689E+00  0.55121E+00  0.94987E-01
  0.72197E+00  0.54892E+00  0.94987E-01
  0.70525E+00  0.56102E+00  0.94987E-01
  0.71055E+00  0.55940E+00  0.94987E-01
  0.71747E+00  0.55728E+00  0.94987E-01
  0.72277E+00  0.55565E+00  0.94987E-01
  0.70533E+00  0.56693E+00  0.94987E-01
  0.71092E+00  0.56617E+00  0.94987E-01
  0.71822E+00  0.56519E+00  0.94987E-01
  0.72381E+00  0.56444E+00  0.94987E-01
  0.70540E+00  0.57145E+00  0.94987E-01
  0.71121E+00  0.57137E+00  0.94987E-01
  0.71879E+00  0.57126E+00  0.94987E-01
  0.72460E+00  0.57117E+00  0.94987E-01
  0.85705E-01  0.28089E+00  0.80126E-02
  0.82081E-01  0.27730E+00  0.80126E-02
  0.77352E-01  0.27261E+00  0.80126E-02
  0.73728E-01  0.26903E+00  0.80126E-02
  0.90889E-01  0.27910E+00  0.80126E-02
  0.87076E-01  0.27476E+00  0.80126E-02
  0.82100E-01  0.26909E+00  0.80126E-02
  0.78286E-01  0.26475E+00  0.80126E-02
  0.97653E-01  0.27678E+00  0.80126E-02
  0.93592E-01  0.27145E+00  0.80126E-02
  0.88293E-01  0.26449E+00  0.80126E-02
  0.84232E-01  0.25916E+00  0.80126E-02
  0.10284E+00  0.27500E+00  0.80126E-02
  0.98586E-01  0.26891E+00  0.80126E-02
  0.93040E-01  0.26097E+00  0.80126E-02
  0.88789E-01  0.25488E+00  0.80126E-02
  0.85705E-01  0.28089E+00  0.34331E-01
  0.82081E-01  0.27730E+00  0.34331E-01
  0.77352E-01  0.27261E+00  0.34331E-01
  0.73728E-01  0.26903E+00  0.34331E-01
  0.90889E-01  0.27910E+00  0.34331E-01
  0.87076E-01  0.27476E+00  0.34331E-01
  0.82100E-01  0.26909E+00  0.34331E-01
  0.78286E-01  0.26475E+00  0.34331E-01
  0.97653E-01  0.27678E+00  0.34331E-01
  0.93592E-01  0.27145E+00  0.34331E-01
  0.88293E-01  0.26449E+00  0.34331E-01
  0.84232E-01  0.25916E+00  0.34331E-01
  0.10284E+00  0.27500E+00  0.34331E-01
  0.98586E-01  0.26891E+00  0.34331E-01
  0.93040E-01  0.26097E+00  0.34331E-01
  0.88789E-01  0.25488E+00  0.34331E-01
  0.85705E-01  0.28089E+00  0.68669E-01
  0.82081E-01  0.27730E+00  0.68669E-01
  0.77352E-01  0.27261E+00  0.68669E-01
  0.73728E-01  0.26903E+00  0.68669E-01
  0.90889E-01  0.27910E+00  0.68669E-01
  0.87076E-01  0.27476E+00  0.68669E-01
  0.82100E-01  0.26909E+00  0.68669E-01
  0.78286E-01  0.26475E+00  0.68669E-01
  0.97653E-01  0.27678E+00  0.68669E-01
  0.93592E-01  0.27145E+00  0.68669E-01
  0.88293E-01  0.26449E+00  0.68669E-01
  0.84232E-01  0.25916E+00  0.68669E-01
  0.10284E+00  0.27500E+00  0.68669E-01
  0.98586E-01  0.26891E+00  0.68669E-01
  0.93040E-01  0.26097E+00  0.68669E-01
  0.88789E-01  0.25488E+00  0.68669E-01
  0.85705E-01  0.28089E+00  0.94987E-01
  0.82081E-01  0.27730E+00  0.94987E-01
  0.77352E-01  0.27261E+00  0.94987E-01
  0.73728E-01  0.26903E+00  0.94987E-01
  0.90889E-01  0.27910E+00  0.94987E-01
  0.87076E-01  0.27476E+00  0.94987E-01
  0.82100E-01  0.26909E+00  0.94987E-01
  0.78286E-01  0.26475E+00  0.94987E-01
  0.97653E-01  0.27678E+00  0.94987E-01
  0.93592E-01  0.27145E+00  0.94987E-01
  0.88293E-01  0.26449E+00  0.94987E-01
  0.84232E-01  0.25916E+00  0.94987E-01
  0.10284E+00  0.27500E+00  0.94987E-01
  0.98586E-01  0.26891E+00  0.94987E-01
  0.93040E-01  0.26097E+00  0.94987E-01
  0.88789E-01  0.25488E+00  0.94987E-01
  0.18121E-01  0.49251E+00  0.80126E-02
  0.23992E-01  0.49097E+00  0.80126E-02
  0.31651E-01  0.48897E+00  0.80126E-02
  0.37522E-01  0.48743E+00  0.80126E-02
  0.20093E-01  0.49824E+00  0.80126E-02
  0.25846E-01  0.49669E+00  0.80126E-02
  0.33352E-01  0.49468E+00  0.80126E-02
  0.39106E-01  0.49313E+00  0.80126E-02
  0.22665E-01  0.50571E+00  0.80126E-02
  0.28265E-01  0.50416E+00  0.80126E-02
  0.35572E-01  0.50213E+00  0.80126E-02
  0.41171E-01  0.50058E+00  0.80126E-02
  0.24637E-01  0.51144E+00  0.80126E-02
  0.30120E-01  0.50988E+00  0.80126E-02
  0.37273E-01  0.50785E+00  0.80126E-02
  0.42755E-01  0.50629E+00  0.80126E-02
  0.18121E-01  0.49251E+00  0.34331E-01
  0.23992E-01  0.49097E+00  0.34331E-01
  0.31651E-01  0.48897E+00  0.34331E-01
  0.37522E-01  0.48743E+00  0.34331E-01
  0.20093E-01  0.49824E+00  0.34331E-01
  0.25846E-01  0.49669E+00  0.34331E-01
  0.33352E-01  0.49468E+00  0.34331E-01
  0.39106E-01  0.49313E+00  0.34331E-01
  0.22665E-01  0.50571E+00  0.34331E-01
  0.28265E-01  0.50416E+00  0.34331E-01
  0.35572E-01  0.50213E+00  0.34331E-01
  0.41171E-01  0.50058E+00  0.34331E-01
  0.24637E-01  0.51144E+00  0.34331E-01
  0.30120E-01  0.50988E+00  0.34331E-01
  0.37273E-01  0.50785E+00  0.34331E-01
  0.42755E-01  0.50629E+00  0.34331E-01
  0.18121E-01  0.49251E+00  0.68669E-01
  0.23992E-01  0.49097E+00  0.68669E-01
  0.31651E-01  0.48897E+00  0.68669E-01
  0.37522E-01  0.48743E+00  0.68669E-01
  0.20093E-01  0.49824E+00  0.68669E-01
  0.25846E-01  0.49669E+00  0.68669E-01
  0.33352E-01  0.49468E+00  0.68669E-01
  0.39106E-01  0.49313E+00  0.68669E-01
  0.22665E-01  0.50571E+00  0.68669E-01
  0.28265E-01  0.50416E+00  0.68669E-01
  0.35572E-01  0.50213E+00  0.68669E-01
  0.41171E-01  0.50058E+00  0.68669E-01
  0.24637E-01  0.51144E+00  0.68669E-01
  0.30120E-01  0.50988E+00  0.68669E-01
  0.37273E-01  0.50785E+00  0.68669E-01
  0.42755E-01  0.50629E+00  0.68669E-01
  0.18121E-01  0.49251E+00  0.94987E-01
  0.23992E-01  0.49097E+00  0.94987E-01
  0.31651E-01  0.48897E+00  0.94987E-01
  0.37522E-01  0.48743E+00  0.94987E-01
  0.20093E-01  0.49824E+00  0.94987E-01
  0.25846E-01  0.49669E+00  0.94987E-01
  0.33352E-01  0.49468E+00  0.94987E-01
  0.39106E-01  0.49313E+00  0.94987E-01
  0.22665E-01  0.50571E+00  0.94987E-01
  0.28265E-01  0.50416E+00  0.94987E-01
  0.35572E-01  0.50213E+00  0.94987E-01
  0.41171E-01  0.50058E+00  0.94987E-01
  0.24637E-01  0.51144E+00  0.94987E-01
  0.30120E-01  0.50988E+00  0.94987E-01
  0.37273E-01  0.50785E+00  0.94987E-01
  0.42755E-01  0.50629E+00  0.94987E-01
  0.65435E+00  0.28505E+00  0.80126E-02
  0.64791E+00  0.28073E+00  0.80126E-02
  0.63950E+00  0.27511E+00  0.80126E-02
  0.63306E+00  0.27079E+00  0.80126E-02
  0.65956E+00  0.27924E+00  0.80126E-02
  0.65309E+00  0.27500E+00  0.80126E-02
  0.64465E+00  0.26947E+00  0.80126E-02
  0.63819E+00  0.26523E+00  0.80126E-02
  0.66636E+00  0.27166E+00  0.80126E-02
  0.65986E+00  0.26752E+00  0.80126E-02
  0.65138E+00  0.26211E+00  0.80126E-02
  0.64487E+00  0.25797E+00  0.80126E-02
  0.67157E+00  0.26585E+00  0.80126E-02
  0.66504E+00  0.26178E+00  0.80126E-02
  0.65653E+00  0.25647E+00  0.80126E-02
  0.65000E+00  0.25241E+00  0.80126E-02
  0.65435E+00  0.28505E+00  0.34331E-01
  0.64791E+00  0.28073E+00  0.34331E-01
  0.63950E+00  0.27511E+00  0.34331E-01
  0.63306E+00  0.27079E+00  0.34331E-01
  0.65956E+00  0.27924E+00  0.34331E-01
  0.65309E+00  0.27500E+00  0.34331E-01
  0.64465E+00  0.26947E+00  0.34331E-01
  0.63819E+00  0.26523E+00  0.34331E-01
  0.66636E+00  0.27166E+00  0.34331E-01
  0.65986E+00  0.26752E+00  0.34331E-01
  0.65138E+00  0.26211E+00  0.34331E-01
  0.64487E+00  0.25797E+00  0.34331E-01
  0.67157E+00  0.26585E+00  0.34331E-01
  0.66504E+00  0.26178E+00  0.34331E-01
  0.65653E+00  0.25647E+00  0.34331E-01
  0.65000E+00  0.25241E+00  0.34331E-01
  0.65435E+00  0.28505E+00  0.68669E-01
  0.64791E+00  0.28073E+00  0.68669E-01
  0.63950E+00  0.27511E+00  0.68669E-01
  0.63306E+00  0.27079E+00  0.68669E-01
  0.65956E+00  0.27924E+00  0.68669E-01
  0.65309E+00  0.27500E+00  0.68669E-01
  0.64465E+00  0.26947E+00  0.68669E-01
  0.63819E+00  0.26523E+00  0.68669E-01
  0.66636E+00  0.27166E+00  0.68669E-01
  0.65986E+00  0.26752E+00  0.68669E-01
  0.65138E+00  0.26211E+00  0.68669E-01
  0.64487E+00  0.25797E+00  0.68669E-01
  0.67157E+00  0.26585E+00  0.68669E-01
  0.66504E+00  0.26178E+00  0.68669E-01
  0.65653E+00  0.25647E+00  0.68669E-01
  0.65000E+00  0.25241E+00  0.68669E-01
  0.65435E+00  0.28505E+00  0.94987E-01
  0.64791E+00  0.28073E+00  0.94987E-01
  0.63950E+00  0.27511E+00  0.94987E-01
  0.63306E+00  0.27079E+00  0.94987E-01
  0.65956E+00  0.27924E+00  0.94987E-01
  0.65309E+00  0.27500E+00  0.94987E-01
  0.64465E+00  0.26947E+00  0.94987E-01
  0.63819E+00  0.26523E+00  0.94987E-01
  0.66636E+00  0.27166E+00  0.94987E-01
  0.65986E+00  0.26752E+00  0.94987E-01
  0.65138E+00  0.26211E+00  0.94987E-01
  0.64487E+00  0.25797E+00  0.94987E-01
  0.67157E+00  0.26585E+00  0.94987E-01
  0.66504E+00  0.26178E+00  0.94987E-01
  0.65653E+00  0.25647E+00  0.94987E-01
  0.65000E+00  0.25241E+00  0.94987E-01
  0.81862E+00  0.51816E+00  0.80126E-02
  0.81320E+00  0.51313E+00  0.80126E-02
  0.80613E+00  0.50657E+00  0.80126E-02
  0.80070E+00  0.50154E+00  0.80126E-02
  0.82420E+00  0.51367E+00  0.80126E-02
  0.81876E+00  0.50863E+00  0.80126E-02
  0.81167E+00  0.50207E+00  0.80126E-02
  0.80623E+00  0.49703E+00  0.80126E-02
  0.83147E+00  0.50781E+00  0.80126E-02
  0.82602E+00  0.50277E+00  0.80126E-02
  0.81890E+00  0.49620E+00  0.80126E-02
  0.81344E+00  0.49116E+00  0.80126E-02
  0.83705E+00  0.50331E+00  0.80126E-02
  0.83158E+00  0.49827E+00  0.80126E-02
  0.82444E+00  0.49170E+00  0.80126E-02
  0.81897E+00  0.48666E+00  0.80126E-02
  0.81862E+00  0.51816E+00  0.34331E-01
  0.81320E+00  0.51313E+00  0.34331E-01
  0.80613E+00  0.50657E+00  0.34331E-01
  0.80070E+00  0.50154E+00  0.34331E-01
  0.82420E+00  0.51367E+00  0.34331E-01
  0.81876E+00  0.50863E+00  0.34331E-01
  0.81167E+00  0.50207E+00  0.34331E-01
  0.80623E+00  0.49703E+00  0.34331E-01
  0.83147E+00  0.50781E+00  0.34331E-01
  0.82602E+00  0.50277E+00  0.34331E-01
  0.81890E+00  0.49620E+00  0.34331E-01
  0.81344E+00  0.49116E+00  0.34331E-01
  0.83705E+00  0.50331E+00  0.34331E-01
  0.83158E+00  0.49827E+00  0.34331E-01
  0.82444E+00  0.49170E+00  0.34331E-01
  0.81897E+00  0.48666E+00  0.34331E-01
  0.81862E+00  0.51816E+00  0.68669E-01
  0.81320E+00  0.51313E+00  0.68669E-01
  0.80613E+00  0.50657E+00  0.68669E-01
  0.80070E+00  0.50154E+00  0.68669E-01
  0.82420E+00  0.51367E+00  0.68669E-01
  0.81876E+00  0.50863E+00  0.68669E-01
  0.81167E+00  0.50207E+00  0.68669E-01
  0.80623E+00  0.49703E+00  0.68669E-01
  0.83147E+00  0.50781E+00  0.68669E-01
  0.82602E+00  0.50277E+00  0.68669E-01
  0.81890E+00  0.49620E+00  0.68669E-01
  0.81344E+00  0.49116E+00  0.68669E-01
  0.83705E+00  0.50331E+00  0.68669E-01
  0.83158E+00  0.49827E+00  0.68669E-01
  0.82444E+00  0.49170E+00  0.68669E-01
  0.81897E+00  0.48666E+00  0.68669E-01
  0.81862E+00  0.51816E+00  0.94987E-01
  0.81320E+00  0.51313E+00  0.94987E-01
  0.80613E+00  0.50657E+00  0.94987E-01
  0.80070E+00  0.50154E+00  0.94987E-01
  0.82420E+00  0.51367E+00  0.94987E-01
  0.81876E+00  0.50863E+00  0.94987E-01
  0.81167E+00  0.50207E+00  0.94987E-01
  0.80623E+00  0.49703E+00  0.94987E-01
  0.83147E+00  0.50781E+00  0.94987E-01
  0.82602E+00  0.50277E+00  0.94987E-01
  0.81890E+00  0.49620E+00  0.94987E-01
  0.81344E+00  0.49116E+00  0.94987E-01
  0.83705E+00  0.50331E+00  0.94987E-01
  0.83158E+00  0.49827E+00  0.94987E-01
  0.82444E+00  0.49170E+00  0.94987E-01
  0.81897E+00  0.48666E+00  0.94987E-01
  0.46059E+00  0.32961E+00  0.80126E-02
  0.46433E+00  0.32388E+00  0.80126E-02
  0.46920E+00  0.31640E+00  0.80126E-02
  0.47294E+00  0.31067E+00  0.80126E-02
  0.46531E+00  0.33375E+00  0.80126E-02
  0.46911E+00  0.32814E+00  0.80126E-02
  0.47407E+00  0.32081E+00  0.80126E-02
  0.47787E+00  0.31519E+00  0.80126E-02
  0.47148E+00  0.33915E+00  0.80126E-02
  0.47536E+00  0.33369E+00  0.80126E-02
  0.48043E+00  0.32656E+00  0.80126E-02
  0.48431E+00  0.32109E+00  0.80126E-02
  0.47620E+00  0.34330E+00  0.80126E-02
  0.48015E+00  0.33795E+00  0.80126E-02
  0.48530E+00  0.33097E+00  0.80126E-02
  0.48925E+00  0.32562E+00  0.80126E-02
  0.46059E+00  0.32961E+00  0.34331E-01
  0.46433E+00  0.32388E+00  0.34331E-01
  0.46920E+00  0.31640E+00  0.34331E-01
  0.47294E+00  0.31067E+00  0.34331E-01
  0.46531E+00  0.33375E+00  0.34331E-01
  0.46911E+00  0.32814E+00  0.34331E-01
  0.47407E+00  0.32081E+00  0.34331E-01
  0.47787E+00  0.31519E+00  0.34331E-01
  0.47148E+00  0.33915E+00  0.34331E-01
  0.47536E+00  0.33369E+00  0.34331E-01
  0.48043E+00  0.32656E+00  0.34331E-01
  0.48431E+00  0.32109E+00  0.34331E-01
  0.47620E+00  0.34330E+00  0.34331E-01
  0.48015E+00  0.33795E+00  0.34331E-01
  0.48530E+00  0.33097E+00  0.34331E-01
  0.48925E+00  0.32562E+00  0.34331E-01
  0.46059E+00  0.32961E+00  0.68669E-01
  0.46433E+00  0.32388E+00  0.68669E-01
  0.46920E+00  0.31640E+00  0.68669E-01
  0.47294E+00  0.31067E+00  0.68669E-01
  0.46531E+00  0.33375E+00  0.68669E-01
  0.46911E+00  0.32814E+00  0.68669E-01
  0.47407E+00  0.32081E+00  0.68669E-01
  0.47787E+00  0.31519E+00  0.68669E-01
  0.47148E+00  0.33915E+00  0.68669E-01
  0.47536E+00  0.33369E+00  0.68669E-01
  0.48043E+00  0.32656E+00  0.68669E-01
  0.48431E+00  0.32109E+00  0.68669E-01
  0.47620E+00  0.34330E+00  0.68669E-01
  0.48015E+00  0.33795E+00  0.68669E-01
  0.48530E+00  0.33097E+00  0.68669E-01
  0.48925E+00  0.32562E+00  0.68669E-01
  0.46059E+00  0.32961E+00  0.94987E-01
  0.46433E+00  0.32388E+00  0.94987E-01
  0.46920E+00  0.31640E+00  0.94987E-01
  0.47294E+00  0.31067E+00  0.94987E-01
  0.46531E+00  0.33375E+00  0.94987E-01
  0.46911E+00  0.32814E+00  0.94987E-01
  0.47407E+00  0.32081E+00  0.94987E-01
  0.47787E+00  0.31519E+00  0.94987E-01
  0.47148E+00  0.33915E+00  0.94987E-01
  0.47536E+00  0.33369E+00  0.94987E-01
  0.48043E+00  0.32656E+00  0.94987E-01
  0.48431E+00  0.32109E+00  0.94987E-01
  0.47620E+00  0.34330E+00  0.94987E-01
  0.48015E+00  0.33795E+00  0.94987E-01
  0.48530E+00  0.33097E+00  0.94987E-01
  0.48925E+00  0.32562E+00  0.94987E-01
  0.49170E+00  0.16011E+00  0.80126E-02
  0.48575E+00  0.16067E+00  0.80126E-02
  0.47800E+00  0.16139E+00  0.80126E-02
  0.47206E+00  0.16195E+00  0.80126E-02
  0.48840E+00  0.15415E+00  0.80126E-02
  0.48280E+00  0.15537E+00  0.80126E-02
  0.47549E+00  0.15697E+00  0.80126E-02
  0.46988E+00  0.15819E+00  0.80126E-02
  0.48411E+00  0.14636E+00  0.80126E-02
  0.47894E+00  0.14846E+00  0.80126E-02
  0.47221E+00  0.15119E+00  0.80126E-02
  0.46705E+00  0.15328E+00  0.80126E-02
  0.48081E+00  0.14040E+00  0.80126E-02
  0.47599E+00  0.14316E+00  0.80126E-02
  0.46970E+00  0.14676E+00  0.80126E-02
  0.46487E+00  0.14952E+00  0.80126E-02
  0.49170E+00  0.16011E+00  0.34331E-01
  0.48575E+00  0.16067E+00  0.34331E-01
  0.47800E+00  0.16139E+00  0.34331E-01
  0.47206E+00  0.16195E+00  0.34331E-01
  0.48840E+00  0.15415E+00  0.34331E-01
  0.48280E+00  0.15537E+00  0.34331E-01
  0.47549E+00  0.15697E+00  0.34331E-01
  0.46988E+00  0.15819E+00  0.34331E-01
  0.48411E+00  0.14636E+00  0.34331E-01
  0.47894E+00  0.14846E+00  0.34331E-01
  0.47221E+00  0.15119E+00  0.34331E-01
  0.46705E+00  0.15328E+00  0.34331E-01
  0.48081E+00  0.14040E+00  0.34331E-01
  0.47599E+00  0.14316E+00  0.34331E-01
  0.46970E+00  0.14676E+00  0.34331E-01
  0.46487E+00  0.14952E+00  0.34331E-01
  0.49170E+00  0.16011E+00  0.68669E-01
  0.48575E+00  0.16067E+00  0.68669E-01
  0.47800E+00  0.16139E+00  0.68669E-01
  0.47206E+00  0.16195E+00  0.68669E-01
  0.48840E+00  0.15415E+00  0.68669E-01
  0.48280E+00  0.15537E+00  0.68669E-01
  0.47549E+00  0.15697E+00  0.68669E-01
  0.46988E+00  0.15819E+00  0.68669E-01
  0.48411E+00  0.14636E+00  0.68669E-01
  0.47894E+00  0.14846E+00  0.68669E-01
  0.47221E+00  0.15119E+00  0.68669E-01
  0.46705E+00  0.15328E+00  0.68669E-01
  0.48081E+00  0.14040E+00  0.68669E-01
  0.47599E+00  0.14316E+00  0.68669E-01
  0.46970E+00  0.14676E+00  0.68669E-01
  0.46487E+00  0.14952E+00  0.68669E-01
  0.49170E+00  0.16011E+00  0.94987E-01
  0.48575E+00  0.16067E+00  0.94987E-01
  0.47800E+00  0.16139E+00  0.94987E-01
  0.47206E+00  0.16195E+00  0.94987E-01
  0.48840E+00  0.15415E+00  0.94987E-01
  0.48280E+00  0.15537E+00  0.94987E-01
  0.47549E+00  0.15697E+00  0.94987E-01
  0.46988E+00  0.15819E+00  0.94987E-01
  0.48411E+00  0.14636E+00  0.94987E-01
  0.47894E+00  0.14846E+00  0.94987E-01
  0.47221E+00  0.15119E+00  0.94987E-01
  0.46705E+00  0.15328E+00  0.94987E-01
  0.48081E+00  0.14040E+00  0.94987E-01
  0.47599E+00  0.14316E+00  0.94987E-01
  0.46970E+00  0.14676E+00  0.94987E-01
  0.46487E+00  0.14952E+00  0.94987E-01
  0.30593E+00  0.69626E+00  0.80126E-02
  0.30115E+00  0.69471E+00  0.80126E-02
  0.29491E+00  0.69269E+00  0.80126E-02
  0.29013E+00  0.69114E+00  0.80126E-02
  0.30523E+00  0.68939E+00  0.80126E-02
  0.30038E+00  0.68858E+00  0.80126E-02
  0.29404E+00  0.68754E+00  0.80126E-02
  0.28918E+00  0.68674E+00  0.80126E-02
  0.30433E+00  0.68041E+00  0.80126E-02
  0.29937E+00  0.68059E+00  0.80126E-02
  0.29290E+00  0.68082E+00  0.80126E-02
  0.28795E+00  0.68099E+00  0.80126E-02
  0.30363E+00  0.67354E+00  0.80126E-02
  0.29860E+00  0.67446E+00  0.80126E-02
  0.29203E+00  0.67566E+00  0.80126E-02
  0.28700E+00  0.67658E+00  0.80126E-02
  0.30593E+00  0.69626E+00  0.34331E-01
  0.30115E+00  0.69471E+00  0.34331E-01
  0.29491E+00  0.69269E+00  0.34331E-01
  0.29013E+00  0.69114E+00  0.34331E-01
  0.30523E+00  0.68939E+00  0.34331E-01
  0.30038E+00  0.68858E+00  0.34331E-01
  0.29404E+00  0.68754E+00  0.34331E-01
  0.28918E+00  0.68674E+00  0.34331E-01
  0.30433E+00  0.68041E+00  0.34331E-01
  0.29937E+00  0.68059E+00  0.34331E-01
  0.29290E+00  0.68082E+00  0.34331E-01
  0.28795E+00  0.68099E+00  0.34331E-01
  0.30363E+00  0.67354E+00  0.34331E-01
  0.29860E+00  0.67446E+00  0.34331E-01
  0.29203E+00  0.67566E+00  0.34331E-01
  0.28700E+00  0.67658E+00  0.34331E-01
  0.30593E+00  0.69626E+00  0.68669E-01
  0.30115E+00  0.69471E+00  0.68669E-01
  0.29491E+00  0.69269E+00  0.68669E-01
  0.29013E+00  0.69114E+00  0.68669E-01
  0.30523E+00  0.68939E+00  0.68669E-01
  0.30038E+00  0.68858E+00  0.68669E-01
  0.29404E+00  0.68754E+00  0.68669E-01
  0.28918E+00  0.68674E+00  0.68669E-01
  0.30433E+00  0.68041E+00  0.68669E-01
  0.29937E+00  0.68059E+00  0.68669E-01
  0.29290E+00  0.68082E+00  0.68669E-01
  0.28795E+00  0.68099E+00  0.68669E-01
  0.30363E+00  0.67354E+00  0.68669E-01
  0.29860E+00  0.67446E+00  0.68669E-01
  0.29203E+00  0.67566E+00  0.68669E-01
  0.28700E+00  0.67658E+00  0.68669E-01
  0.30593E+00  0.69626E+00  0.94987E-01
  0.30115E+00  0.69471E+00  0.94987E-01
  0.29491E+00  0.69269E+00  0.94987E-01
  0.29013E+00  0.69114E+00  0.94987E-01
  0.30523E+00  0.68939E+00  0.94987E-01
  0.30038E+00  0.68858E+00  0.94987E-01
  0.29404E+00  0.68754E+00  0.94987E-01
  0.28918E+00  0.68674E+00  0.94987E-01
  0.30433E+00  0.68041E+00  0.94987E-01
  0.29937E+00  0.68059E+00  0.94987E-01
  0.29290E+00  0.68082E+00  0.94987E-01
  0.28795E+00  0.68099E+00  0.94987E-01
  0.30363E+00  0.67354E+00  0.94987E-01
  0.29860E+00  0.67446E+00  0.94987E-01
  0.29203E+00  0.67566E+00  0.94987E-01
  0.28700E+00  0.67658E+00  0.94987E-01
  0.70399E+00  0.59308E+00  0.80126E-02
  0.70439E+00  0.58736E+00  0.80126E-02
  0.70491E+00  0.57990E+00  0.80126E-02
  0.70531E+00  0.57418E+00  0.80126E-02
  0.71002E+00  0.59357E+00  0.80126E-02
  0.71037E+00  0.58774E+00  0.80126E-02
  0.71084E+00  0.58014E+00  0.80126E-02
  0.71119E+00  0.57431E+00  0.80126E-02
  0.71788E+00  0.59421E+00  0.80126E-02
  0.71818E+00  0.58824E+00  0.80126E-02
  0.71857E+00  0.58044E+00  0.80126E-02
  0.71887E+00  0.57447E+00  0.80126E-02
  0.72390E+00  0.59471E+00  0.80126E-02
  0.72416E+00  0.58862E+00  0.80126E-02
  0.72449E+00  0.58068E+00  0.80126E-02
  0.72475E+00  0.57459E+00  0.80126E-02
  0.70399E+00  0.59308E+00  0.34331E-01
  0.70439E+00  0.58736E+00  0.34331E-01
  0.70491E+00  0.57990E+00  0.34331E-01
  0.70531E+00  0.57418E+00  0.34331E-01
  0.71002E+00  0.59357E+00  0.34331E-01
  0.71037E+00  0.58774E+00  0.34331E-01
  0.71084E+00  0.58014E+00  0.34331E-01
  0.71119E+00  0.57431E+00  0.34331E-01
  0.71788E+00  0.59421E+00  0.34331E-01
  0.71818E+00  0.58824E+00  0.34331E-01
  0.71857E+00  0.58044E+00  0.34331E-01
  0.71887E+00  0.57447E+00  0.34331E-01
  0.72390E+00  0.59471E+00  0.34331E-01
  0.72416E+00  0.58862E+00  0.34331E-01
  0.72449E+00  0.58068E+00  0.34331E-01
  0.72475E+00  0.57459E+00  0.34331E-01
  0.70399E+00  0.59308E+00  0.68669E-01
  0.70439E+00  0.58736E+00  0.68669E-01
  0.70491E+00  0.57990E+00  0.68669E-01
  0.70531E+00  0.57418E+00  0.68669E-01
  0.71002E+00  0.59357E+00  0.68669E-01
  0.71037E+00  0.58774E+00  0.68669E-01
  0.71084E+00  0.58014E+00  0.68669E-01
  0.71119E+00  0.57431E+00  0.68669E-01
  0.71788E+00  0.59421E+00  0.68669E-01
  0.71818E+00  0.58824E+00  0.68669E-01
  0.71857E+00  0.58044E+00  0.68669E-01
  0.71887E+00  0.57447E+00  0.68669E-01
  0.72390E+00  0.59471E+00  0.68669E-01
  0.72416E+00  0.58862E+00  0.68669E-01
  0.72449E+00  0.58068E+00  0.68669E-01
  0.72475E+00  0.57459E+00  0.68669E-01
  0.70399E+00  0.59308E+00  0.94987E-01
  0.70439E+00  0.58736E+00  0.94987E-01
  0.70491E+00  0.57990E+00  0.94987E-01
  0.70531E+00  0.57418E+00  0.94987E-01
  0.71002E+00  0.59357E+00  0.94987E-01
  0.71037E+00  0.58774E+00  0.94987E-01
  0.71084E+00  0.58014E+00  0.94987E-01
  0.71119E+00  0.57431E+00  0.94987E-01
  0.71788E+00  0.59421E+00  0.94987E-01
  0.71818E+00  0.58824E+00  0.94987E-01
  0.71857E+00  0.58044E+00  0.94987E-01
  0.71887E+00  0.57447E+00  0.94987E-01
  0.72390E+00  0.59471E+00  0.94987E-01
  0.72416E+00  0.58862E+00  0.94987E-01
  0.72449E+00  0.58068E+00  0.94987E-01
  0.72475E+00  0.57459E+00  0.94987E-01
  0.50851E+00  0.56190E+00  0.80126E-02
  0.50934E+00  0.56805E+00  0.80126E-02
  0.51042E+00  0.57607E+00  0.80126E-02
  0.51125E+00  0.58222E+00  0.80126E-02
  0.50091E+00  0.56155E+00  0.80126E-02
  0.50206E+00  0.56804E+00  0.80126E-02
  0.50357E+00  0.57651E+00  0.80126E-02
  0.50473E+00  0.58300E+00  0.80126E-02
  0.49098E+00  0.56109E+00  0.80126E-02
  0.49257E+00  0.56803E+00  0.80126E-02
  0.49464E+00  0.57708E+00  0.80126E-02
  0.49623E+00  0.58402E+00  0.80126E-02
  0.48338E+00  0.56073E+00  0.80126E-02
  0.48529E+00  0.56801E+00  0.80126E-02
  0.48779E+00  0.57751E+00  0.80126E-02
  0.48971E+00  0.58479E+00  0.80126E-02
  0.50851E+00  0.56190E+00  0.34331E-01
  0.50934E+00  0.56805E+00  0.34331E-01
  0.51042E+00  0.57607E+00  0.34331E-01
  0.51125E+00  0.58222E+00  0.34331E-01
  0.50091E+00  0.56155E+00  0.34331E-01
  0.50206E+00  0.56804E+00  0.34331E-01
  0.50357E+00  0.57651E+00  0.34331E-01
  0.50473E+00  0.58300E+00  0.34331E-01
  0.49098E+00  0.56109E+00  0.34331E-01
  0.49257E+00  0.56803E+00  0.34331E-01
  0.49464E+00  0.57708E+00  0.34331E-01
  0.49623E+00  0.58402E+00  0.34331E-01
  0.48338E+00  0.56073E+00  0.34331E-01
  0.48529E+00  0.56801E+00  0.34331E-01
  0.48779E+00  0.57751E+00  0.34331E-01
  0.48971E+00  0.58479E+00  0.34331E-01
  0.50851E+00  0.56190E+00  0.68669E-01
  0.50934E+00  0.56805E+00  0.68669E-01
  0.51042E+00  0.57607E+00  0.68669E-01
  0.51125E+00  0.58222E+00  0.68669E-01
  0.50091E+00  0.56155E+00  0.68669E-01
  0.50206E+00  0.56804E+00  0.68669E-01
  0.50357E+00  0.57651E+00  0.68669E-01
  0.50473E+00  0.58300E+00  0.68669E-01
  0.49098E+00  0.56109E+00  0.68669E-01
  0.49257E+00  0.56803E+00  0.68669E-01
  0.49464E+00  0.57708E+00  0.68669E-01
  0.49623E+00  0.58402E+00  0.68669E-01
  0.48338E+00  0.56073E+00  0.68669E-01
  0.48529E+00  0.56801E+00  0.68669E-01
  0.48779E+00  0.57751E+00  0.68669E-01
  0.48971E+00  0.58479E+00  0.68669E-01
  0.50851E+00  0.56190E+00  0.94987E-01
  0.50934E+00  0.56805E+00  0.94987E-01
  0.51042E+00  0.57607E+00  0.94987E-01
  0.51125E+00  0.58222E+00  0.94987E-01
  0.50091E+00  0.56155E+00  0.94987E-01
  0.50206E+00  0.56804E+00  0.94987E-01
  0.50357E+00  0.57651E+00  0.94987E-01
  0.50473E+00  0.58300E+00  0.94987E-01
  0.49098E+00  0.56109E+00  0.94987E-01
  0.49257E+00  0.56803E+00  0.94987E-01
  0.49464E+00  0.57708E+00  0.94987E-01
  0.49623E+00  0.58402E+00  0.94987E-01
  0.48338E+00  0.56073E+00  0.94987E-01
  0.48529E+00  0.56801E+00  0.94987E-01
  0.48779E+00  0.57751E+00  0.94987E-01
  0.48971E+00  0.58479E+00  0.94987E-01
  0.61495E+00  0.50371E+00  0.80126E-02
  0.62017E+00  0.50649E+00  0.80126E-02
  0.62698E+00  0.51011E+00  0.80126E-02
  0.63220E+00  0.51289E+00  0.80126E-02
  0.61163E+00  0.50877E+00  0.80126E-02
  0.61698E+00  0.51174E+00  0.80126E-02
  0.62396E+00  0.51563E+00  0.80126E-02
  0.62931E+00  0.51861E+00  0.80126E-02
  0.60731E+00  0.51536E+00  0.80126E-02
  0.61283E+00  0.51860E+00  0.80126E-02
  0.62003E+00  0.52283E+00  0.80126E-02
  0.62555E+00  0.52607E+00  0.80126E-02
  0.60399E+00  0.52041E+00  0.80126E-02
  0.60964E+00  0.52385E+00  0.80126E-02
  0.61701E+00  0.52835E+00  0.80126E-02
  0.62266E+00  0.53179E+00  0.80126E-02
  0.61495E+00  0.50371E+00  0.34331E-01
  0.62017E+00  0.50649E+00  0.34331E-01
  0.62698E+00  0.51011E+00  0.34331E-01
  0.63220E+00  0.51289E+00  0.34331E-01
  0.61163E+00  0.50877E+00  0.34331E-01
  0.61698E+00  0.51174E+00  0.34331E-01
  0.62396E+00  0.51563E+00  0.34331E-01
  0.62931E+00  0.51861E+00  0.34331E-01
  0.60731E+00  0.51536E+00  0.34331E-01
  0.61283E+00  0.51860E+00  0.34331E-01
  0.62003E+00  0.52283E+00  0.34331E-01
  0.62555E+00  0.52607E+00  0.34331E-01
  0.60399E+00  0.52041E+00  0.34331E-01
  0.60964E+00  0.52385E+00  0.34331E-01
  0.61701E+00  0.52835E+00  0.34331E-01
  0.62266E+00  0.53179E+00  0.34331E-01
  0.61495E+00  0.50371E+00  0.68669E-01
  0.62017E+00  0.50649E+00  0.68669E-01
  0.62698E+00  0.51011E+00  0.68669E-01
  0.63220E+00  0.51289E+00  0.68669E-01
  0.61163E+00  0.50877E+00  0.68669E-01
  0.61698E+00  0.51174E+00  0.68669E-01
  0.62396E+00  0.51563E+00  0.68669E-01
  0.62931E+00  0.51861E+00  0.68669E-01
  0.60731E+00  0.51536E+00  0.68669E-01
  0.61283E+00  0.51860E+00  0.68669E-01
  0.62003E+00  0.52283E+00  0.68669E-01