TITLE = "OrientedBoudingBox"
VARIABLES = "x", "y", "z"
ZONE NODES=8, ELEMENTS = 6, DATAPACKING=POINT, ZONETYPE=FETETRAHEDRON
  0.14830E+00  0.11318E+01  0.13006E+02
  0.14286E+00  0.11111E+01 -0.81488E-02
  0.11111E+01  0.85715E+00 -0.81488E-02
  0.11165E+01  0.87790E+00  0.13006E+02
 -0.11109E+00  0.14287E+00  0.13008E+02
 -0.11653E+00  0.12212E+00 -0.64637E-02
  0.85171E+00 -0.13183E+00 -0.64637E-02
  0.85715E+00 -0.11108E+00  0.13008E+02
 1 2 3 4
 1 5 8 4
 5 6 7 8
 2 3 7 6
 4 8 7 3
 1 2 6 5
