TITLE = "Mask Points"
VARIABLES = "x","y","z"
ZONE T="Points", I=1, J=1, K=3672, F=POINT
  0.13022054E+02 -0.27901011E+02  0.13896369E+01
  0.17654545E+02 -0.27901011E+02  0.13896369E+01
  0.17654545E+02 -0.27901011E+02  0.66011896E+01
  0.13022054E+02 -0.32533502E+02  0.13896369E+01
  0.17654545E+02 -0.32533502E+02  0.13896369E+01
  0.17654545E+02 -0.32533502E+02  0.66011896E+01
  0.17654545E+02 -0.38577609E+02  0.13896369E+01
  0.69779463E+01 -0.10123233E+02  0.13896369E+01
  0.13022054E+02 -0.10123233E+02  0.13896369E+01
  0.13022054E+02 -0.10123233E+02  0.66011896E+01
  0.17654545E+02 -0.10123233E+02  0.13896369E+01
  0.17654545E+02 -0.10123233E+02  0.66011896E+01
  0.17654545E+02 -0.10123233E+02  0.13400810E+02
  0.69779463E+01 -0.14755724E+02  0.13896369E+01
  0.13022054E+02 -0.14755724E+02  0.13896369E+01
  0.13022054E+02 -0.14755724E+02  0.66011896E+01
  0.17654545E+02 -0.14755724E+02  0.13896369E+01
  0.17654545E+02 -0.14755724E+02  0.66011896E+01
  0.17654545E+02 -0.14755724E+02  0.13400810E+02
  0.69779463E+01 -0.20799831E+02  0.13896369E+01
  0.13022054E+02 -0.20799831E+02  0.13896369E+01
  0.13022054E+02 -0.20799831E+02  0.66011896E+01
  0.17654545E+02 -0.20799831E+02  0.13896369E+01
  0.17654545E+02 -0.20799831E+02  0.66011896E+01
  0.17654545E+02 -0.20799831E+02  0.13400810E+02
  0.13022054E+02 -0.25432323E+02  0.13896369E+01
  0.13022054E+02 -0.25432323E+02  0.66011896E+01
  0.17654545E+02 -0.25432323E+02  0.13896369E+01
  0.17654545E+02 -0.25432323E+02  0.66011896E+01
  0.23454550E+01  0.76545450E+01  0.13896369E+01
  0.69779463E+01  0.76545450E+01  0.13896369E+01
  0.13022054E+02  0.76545450E+01  0.13896369E+01
  0.13022054E+02  0.76545450E+01  0.66011896E+01
  0.17654545E+02  0.76545450E+01  0.13896369E+01
  0.17654545E+02  0.76545450E+01  0.66011896E+01
  0.17654545E+02  0.76545450E+01  0.13400810E+02
  0.23454550E+01  0.30220537E+01  0.13896369E+01
  0.69779463E+01  0.30220537E+01  0.66011896E+01
  0.17654545E+02  0.30220537E+01  0.13400810E+02
  0.23454550E+01 -0.30220537E+01  0.13896369E+01
  0.69779463E+01 -0.30220537E+01  0.66011896E+01
  0.17654545E+02 -0.30220537E+01  0.13400810E+02
  0.23454550E+01 -0.76545450E+01  0.13896369E+01
  0.69779463E+01 -0.76545450E+01  0.13896369E+01
  0.13022054E+02 -0.76545450E+01  0.13896369E+01
  0.13022054E+02 -0.76545450E+01  0.66011896E+01
  0.17654545E+02 -0.76545450E+01  0.13896369E+01
  0.17654545E+02 -0.76545450E+01  0.66011896E+01
  0.17654545E+02 -0.76545450E+01  0.13400810E+02
  0.13022054E+02  0.25432323E+02  0.13896369E+01
  0.13022054E+02  0.25432323E+02  0.66011896E+01
  0.17654545E+02  0.25432323E+02  0.13896369E+01
  0.17654545E+02  0.25432323E+02  0.66011896E+01
  0.69779463E+01  0.20799831E+02  0.13896369E+01
  0.13022054E+02  0.20799831E+02  0.13896369E+01
  0.13022054E+02  0.20799831E+02  0.66011896E+01
  0.17654545E+02  0.20799831E+02  0.13896369E+01
  0.17654545E+02  0.20799831E+02  0.66011896E+01
  0.17654545E+02  0.20799831E+02  0.13400810E+02
  0.69779463E+01  0.14755724E+02  0.13896369E+01
  0.13022054E+02  0.14755724E+02  0.13896369E+01
  0.13022054E+02  0.14755724E+02  0.66011896E+01
  0.17654545E+02  0.14755724E+02  0.13896369E+01
  0.17654545E+02  0.14755724E+02  0.66011896E+01
  0.17654545E+02  0.14755724E+02  0.13400810E+02
  0.69779463E+01  0.10123233E+02  0.13896369E+01
  0.13022054E+02  0.10123233E+02  0.13896369E+01
  0.13022054E+02  0.10123233E+02  0.66011896E+01
  0.17654545E+02  0.10123233E+02  0.13896369E+01
  0.17654545E+02  0.10123233E+02  0.66011896E+01
  0.17654545E+02  0.10123233E+02  0.13400810E+02
  0.17654545E+02  0.38577609E+02  0.13896369E+01
  0.13022054E+02  0.32533502E+02  0.13896369E+01
  0.17654545E+02  0.32533502E+02  0.13896369E+01
  0.17654545E+02  0.32533502E+02  0.66011896E+01
  0.13022054E+02  0.27901011E+02  0.13896369E+01
  0.17654545E+02  0.27901011E+02  0.13896369E+01
  0.17654545E+02  0.27901011E+02  0.66011896E+01
  0.24755724E+02 -0.45678788E+02  0.13896369E+01
  0.30799831E+02 -0.45678788E+02  0.13896369E+01
  0.30799831E+02 -0.45678788E+02  0.66011896E+01
  0.35432323E+02 -0.45678788E+02  0.13896369E+01
  0.35432323E+02 -0.45678788E+02  0.66011896E+01
  0.35432323E+02 -0.45678788E+02  0.13400810E+02
  0.30799831E+02 -0.50311280E+02  0.13896369E+01
  0.35432323E+02 -0.50311280E+02  0.13896369E+01
  0.35432323E+02 -0.50311280E+02  0.66011896E+01
  0.35432323E+02 -0.56355387E+02  0.13896369E+01
  0.20123233E+02 -0.27901011E+02  0.13896369E+01
  0.20123233E+02 -0.27901011E+02  0.66011896E+01
  0.24755724E+02 -0.27901011E+02  0.13896369E+01
  0.24755724E+02 -0.27901011E+02  0.66011896E+01
  0.24755724E+02 -0.27901011E+02  0.13400810E+02
  0.30799831E+02 -0.27901011E+02  0.13896369E+01
  0.30799831E+02 -0.27901011E+02  0.66011896E+01
  0.30799831E+02 -0.27901011E+02  0.13400810E+02
  0.30799831E+02 -0.27901011E+02  0.18612363E+02
  0.35432323E+02 -0.27901011E+02  0.13896369E+01
  0.35432323E+02 -0.27901011E+02  0.66011896E+01
  0.35432323E+02 -0.27901011E+02  0.13400810E+02
  0.35432323E+02 -0.27901011E+02  0.18612363E+02
  0.20123233E+02 -0.32533502E+02  0.13896369E+01
  0.20123233E+02 -0.32533502E+02  0.66011896E+01
  0.24755724E+02 -0.32533502E+02  0.13896369E+01
  0.24755724E+02 -0.32533502E+02  0.66011896E+01
  0.24755724E+02 -0.32533502E+02  0.13400810E+02
  0.30799831E+02 -0.32533502E+02  0.13896369E+01
  0.30799831E+02 -0.32533502E+02  0.66011896E+01
  0.30799831E+02 -0.32533502E+02  0.13400810E+02
  0.30799831E+02 -0.32533502E+02  0.18612363E+02
  0.35432323E+02 -0.32533502E+02  0.13896369E+01
  0.35432323E+02 -0.32533502E+02  0.66011896E+01
  0.35432323E+02 -0.32533502E+02  0.13400810E+02
  0.35432323E+02 -0.32533502E+02  0.18612363E+02
  0.20123233E+02 -0.38577609E+02  0.13896369E+01
  0.24755724E+02 -0.38577609E+02  0.13896369E+01
  0.24755724E+02 -0.38577609E+02  0.66011896E+01
  0.30799831E+02 -0.38577609E+02  0.13896369E+01
  0.30799831E+02 -0.38577609E+02  0.66011896E+01
  0.30799831E+02 -0.38577609E+02  0.13400810E+02
  0.35432323E+02 -0.38577609E+02  0.13896369E+01
  0.35432323E+02 -0.38577609E+02  0.66011896E+01
  0.35432323E+02 -0.38577609E+02  0.13400810E+02
  0.35432323E+02 -0.38577609E+02  0.18612363E+02
  0.20123233E+02 -0.43210101E+02  0.13896369E+01
  0.24755724E+02 -0.43210101E+02  0.13896369E+01
  0.24755724E+02 -0.43210101E+02  0.66011896E+01
  0.30799831E+02 -0.43210101E+02  0.13896369E+01
  0.30799831E+02 -0.43210101E+02  0.66011896E+01
  0.35432323E+02 -0.43210101E+02  0.13896369E+01
  0.35432323E+02 -0.43210101E+02  0.66011896E+01
  0.35432323E+02 -0.43210101E+02  0.13400810E+02
  0.30799831E+02 -0.27901011E+02  0.21389637E+02
  0.35432323E+02 -0.27901011E+02  0.21389637E+02
  0.35432323E+02 -0.27901011E+02  0.26601190E+02
  0.35432323E+02 -0.32533502E+02  0.21389637E+02
  0.20123233E+02 -0.10123233E+02  0.13896369E+01
  0.20123233E+02 -0.10123233E+02  0.66011896E+01
  0.20123233E+02 -0.10123233E+02  0.13400810E+02
  0.20123233E+02 -0.10123233E+02  0.18612363E+02
  0.24755724E+02 -0.10123233E+02  0.13896369E+01
  0.24755724E+02 -0.10123233E+02  0.66011896E+01
  0.24755724E+02 -0.10123233E+02  0.13400810E+02
  0.24755724E+02 -0.10123233E+02  0.18612363E+02
  0.30799831E+02 -0.10123233E+02  0.13896369E+01
  0.30799831E+02 -0.10123233E+02  0.66011896E+01
  0.30799831E+02 -0.10123233E+02  0.13400810E+02
  0.30799831E+02 -0.10123233E+02  0.18612363E+02
  0.35432323E+02 -0.10123233E+02  0.13896369E+01
  0.35432323E+02 -0.10123233E+02  0.66011896E+01
  0.35432323E+02 -0.10123233E+02  0.13400810E+02
  0.35432323E+02 -0.10123233E+02  0.18612363E+02
  0.20123233E+02 -0.14755724E+02  0.13896369E+01
  0.20123233E+02 -0.14755724E+02  0.66011896E+01
  0.20123233E+02 -0.14755724E+02  0.13400810E+02
  0.24755724E+02 -0.14755724E+02  0.13896369E+01
  0.24755724E+02 -0.14755724E+02  0.66011896E+01
  0.24755724E+02 -0.14755724E+02  0.13400810E+02
  0.24755724E+02 -0.14755724E+02  0.18612363E+02
  0.30799831E+02 -0.14755724E+02  0.13896369E+01
  0.30799831E+02 -0.14755724E+02  0.66011896E+01
  0.30799831E+02 -0.14755724E+02  0.13400810E+02
  0.30799831E+02 -0.14755724E+02  0.18612363E+02
  0.35432323E+02 -0.14755724E+02  0.13896369E+01
  0.35432323E+02 -0.14755724E+02  0.66011896E+01
  0.35432323E+02 -0.14755724E+02  0.13400810E+02
  0.35432323E+02 -0.14755724E+02  0.18612363E+02
  0.20123233E+02 -0.20799831E+02  0.13896369E+01
  0.20123233E+02 -0.20799831E+02  0.66011896E+01
  0.20123233E+02 -0.20799831E+02  0.13400810E+02
  0.24755724E+02 -0.20799831E+02  0.13896369E+01
  0.24755724E+02 -0.20799831E+02  0.66011896E+01
  0.24755724E+02 -0.20799831E+02  0.13400810E+02
  0.24755724E+02 -0.20799831E+02  0.18612363E+02
  0.30799831E+02 -0.20799831E+02  0.13896369E+01
  0.30799831E+02 -0.20799831E+02  0.66011896E+01
  0.30799831E+02 -0.20799831E+02  0.13400810E+02
  0.30799831E+02 -0.20799831E+02  0.18612363E+02
  0.35432323E+02 -0.20799831E+02  0.13896369E+01
  0.35432323E+02 -0.20799831E+02  0.66011896E+01
  0.35432323E+02 -0.20799831E+02  0.13400810E+02
  0.35432323E+02 -0.20799831E+02  0.18612363E+02
  0.20123233E+02 -0.25432323E+02  0.13896369E+01
  0.20123233E+02 -0.25432323E+02  0.66011896E+01
  0.20123233E+02 -0.25432323E+02  0.13400810E+02
  0.24755724E+02 -0.25432323E+02  0.13896369E+01
  0.24755724E+02 -0.25432323E+02  0.66011896E+01
  0.24755724E+02 -0.25432323E+02  0.13400810E+02
  0.30799831E+02 -0.25432323E+02  0.13896369E+01
  0.30799831E+02 -0.25432323E+02  0.66011896E+01
  0.30799831E+02 -0.25432323E+02  0.13400810E+02
  0.30799831E+02 -0.25432323E+02  0.18612363E+02
  0.35432323E+02 -0.25432323E+02  0.13896369E+01
  0.35432323E+02 -0.25432323E+02  0.66011896E+01
  0.35432323E+02 -0.25432323E+02  0.13400810E+02
  0.35432323E+02 -0.25432323E+02  0.18612363E+02
  0.24755724E+02 -0.10123233E+02  0.21389637E+02
  0.30799831E+02 -0.10123233E+02  0.21389637E+02
  0.30799831E+02 -0.10123233E+02  0.26601190E+02
  0.35432323E+02 -0.10123233E+02  0.21389637E+02
  0.35432323E+02 -0.10123233E+02  0.26601190E+02
  0.35432323E+02 -0.10123233E+02  0.33400810E+02
  0.24755724E+02 -0.14755724E+02  0.21389637E+02
  0.30799831E+02 -0.14755724E+02  0.21389637E+02
  0.30799831E+02 -0.14755724E+02  0.26601190E+02
  0.35432323E+02 -0.14755724E+02  0.21389637E+02
  0.35432323E+02 -0.14755724E+02  0.26601190E+02
  0.30799831E+02 -0.20799831E+02  0.21389637E+02
  0.30799831E+02 -0.20799831E+02  0.26601190E+02
  0.35432323E+02 -0.20799831E+02  0.21389637E+02
  0.35432323E+02 -0.20799831E+02  0.26601190E+02
  0.30799831E+02 -0.25432323E+02  0.21389637E+02
  0.35432323E+02 -0.25432323E+02  0.21389637E+02
  0.35432323E+02 -0.25432323E+02  0.26601190E+02
  0.20123233E+02  0.76545450E+01  0.13896369E+01
  0.20123233E+02  0.76545450E+01  0.66011896E+01
  0.20123233E+02  0.76545450E+01  0.13400810E+02
  0.20123233E+02  0.76545450E+01  0.18612363E+02
  0.24755724E+02  0.76545450E+01  0.13896369E+01
  0.24755724E+02  0.76545450E+01  0.66011896E+01
  0.24755724E+02  0.76545450E+01  0.13400810E+02
  0.24755724E+02  0.76545450E+01  0.18612363E+02
  0.30799831E+02  0.76545450E+01  0.13896369E+01
  0.30799831E+02  0.76545450E+01  0.66011896E+01
  0.30799831E+02  0.76545450E+01  0.13400810E+02
  0.30799831E+02  0.76545450E+01  0.18612363E+02
  0.35432323E+02  0.76545450E+01  0.66011896E+01
  0.35432323E+02  0.76545450E+01  0.13400810E+02
  0.35432323E+02  0.76545450E+01  0.18612363E+02
  0.20123233E+02  0.30220537E+01  0.18612363E+02
  0.20123233E+02 -0.30220537E+01  0.18612363E+02
  0.20123233E+02 -0.76545450E+01  0.13896369E+01
  0.20123233E+02 -0.76545450E+01  0.66011896E+01
  0.20123233E+02 -0.76545450E+01  0.13400810E+02
  0.20123233E+02 -0.76545450E+01  0.18612363E+02
  0.24755724E+02 -0.76545450E+01  0.13896369E+01
  0.24755724E+02 -0.76545450E+01  0.66011896E+01
  0.24755724E+02 -0.76545450E+01  0.13400810E+02
  0.24755724E+02 -0.76545450E+01  0.18612363E+02
  0.30799831E+02 -0.76545450E+01  0.13896369E+01
  0.30799831E+02 -0.76545450E+01  0.66011896E+01
  0.30799831E+02 -0.76545450E+01  0.13400810E+02
  0.30799831E+02 -0.76545450E+01  0.18612363E+02
  0.35432323E+02 -0.76545450E+01  0.66011896E+01
  0.35432323E+02 -0.76545450E+01  0.13400810E+02
  0.35432323E+02 -0.76545450E+01  0.18612363E+02
  0.24755724E+02  0.76545450E+01  0.21389637E+02
  0.30799831E+02  0.76545450E+01  0.21389637E+02
  0.30799831E+02  0.76545450E+01  0.26601190E+02
  0.35432323E+02  0.76545450E+01  0.21389637E+02
  0.35432323E+02  0.76545450E+01  0.26601190E+02
  0.35432323E+02  0.76545450E+01  0.33400810E+02
  0.24755724E+02  0.30220537E+01  0.21389637E+02
  0.30799831E+02  0.30220537E+01  0.26601190E+02
  0.35432323E+02  0.30220537E+01  0.33400810E+02
  0.24755724E+02 -0.30220537E+01  0.21389637E+02
  0.30799831E+02 -0.30220537E+01  0.26601190E+02
  0.35432323E+02 -0.30220537E+01  0.33400810E+02
  0.24755724E+02 -0.76545450E+01  0.21389637E+02
  0.30799831E+02 -0.76545450E+01  0.21389637E+02
  0.30799831E+02 -0.76545450E+01  0.26601190E+02
  0.35432323E+02 -0.76545450E+01  0.21389637E+02
  0.35432323E+02 -0.76545450E+01  0.26601190E+02
  0.35432323E+02 -0.76545450E+01  0.33400810E+02
  0.20123233E+02  0.25432323E+02  0.13896369E+01
  0.20123233E+02  0.25432323E+02  0.66011896E+01
  0.20123233E+02  0.25432323E+02  0.13400810E+02
  0.24755724E+02  0.25432323E+02  0.13896369E+01
  0.24755724E+02  0.25432323E+02  0.66011896E+01
  0.24755724E+02  0.25432323E+02  0.13400810E+02
  0.24755724E+02  0.25432323E+02  0.18612363E+02
  0.30799831E+02  0.25432323E+02  0.13896369E+01
  0.30799831E+02  0.25432323E+02  0.66011896E+01
  0.30799831E+02  0.25432323E+02  0.13400810E+02
  0.30799831E+02  0.25432323E+02  0.18612363E+02
  0.35432323E+02  0.25432323E+02  0.13896369E+01
  0.35432323E+02  0.25432323E+02  0.66011896E+01
  0.35432323E+02  0.25432323E+02  0.13400810E+02
  0.35432323E+02  0.25432323E+02  0.18612363E+02
  0.20123233E+02  0.20799831E+02  0.13896369E+01
  0.20123233E+02  0.20799831E+02  0.66011896E+01
  0.20123233E+02  0.20799831E+02  0.13400810E+02
  0.24755724E+02  0.20799831E+02  0.13896369E+01
  0.24755724E+02  0.20799831E+02  0.66011896E+01
  0.24755724E+02  0.20799831E+02  0.13400810E+02
  0.24755724E+02  0.20799831E+02  0.18612363E+02
  0.30799831E+02  0.20799831E+02  0.13896369E+01
  0.30799831E+02  0.20799831E+02  0.66011896E+01
  0.30799831E+02  0.20799831E+02  0.13400810E+02
  0.30799831E+02  0.20799831E+02  0.18612363E+02
  0.35432323E+02  0.20799831E+02  0.13896369E+01
  0.35432323E+02  0.20799831E+02  0.66011896E+01
  0.35432323E+02  0.20799831E+02  0.13400810E+02
  0.35432323E+02  0.20799831E+02  0.18612363E+02
  0.20123233E+02  0.14755724E+02  0.13896369E+01
  0.20123233E+02  0.14755724E+02  0.66011896E+01
  0.20123233E+02  0.14755724E+02  0.13400810E+02
  0.24755724E+02  0.14755724E+02  0.13896369E+01
  0.24755724E+02  0.14755724E+02  0.66011896E+01
  0.24755724E+02  0.14755724E+02  0.13400810E+02
  0.24755724E+02  0.14755724E+02  0.18612363E+02
  0.30799831E+02  0.14755724E+02  0.13896369E+01
  0.30799831E+02  0.14755724E+02  0.66011896E+01
  0.30799831E+02  0.14755724E+02  0.13400810E+02
  0.30799831E+02  0.14755724E+02  0.18612363E+02
  0.35432323E+02  0.14755724E+02  0.13896369E+01
  0.35432323E+02  0.14755724E+02  0.66011896E+01
  0.35432323E+02  0.14755724E+02  0.13400810E+02
  0.35432323E+02  0.14755724E+02  0.18612363E+02
  0.20123233E+02  0.10123233E+02  0.13896369E+01
  0.20123233E+02  0.10123233E+02  0.66011896E+01
  0.20123233E+02  0.10123233E+02  0.13400810E+02
  0.20123233E+02  0.10123233E+02  0.18612363E+02
  0.24755724E+02  0.10123233E+02  0.13896369E+01
  0.24755724E+02  0.10123233E+02  0.66011896E+01
  0.24755724E+02  0.10123233E+02  0.13400810E+02
  0.24755724E+02  0.10123233E+02  0.18612363E+02
  0.30799831E+02  0.10123233E+02  0.13896369E+01
  0.30799831E+02  0.10123233E+02  0.66011896E+01
  0.30799831E+02  0.10123233E+02  0.13400810E+02
  0.30799831E+02  0.10123233E+02  0.18612363E+02
  0.35432323E+02  0.10123233E+02  0.13896369E+01
  0.35432323E+02  0.10123233E+02  0.66011896E+01
  0.35432323E+02  0.10123233E+02  0.13400810E+02
  0.35432323E+02  0.10123233E+02  0.18612363E+02
  0.30799831E+02  0.25432323E+02  0.21389637E+02
  0.35432323E+02  0.25432323E+02  0.21389637E+02
  0.35432323E+02  0.25432323E+02  0.26601190E+02
  0.30799831E+02  0.20799831E+02  0.21389637E+02
  0.30799831E+02  0.20799831E+02  0.26601190E+02
  0.35432323E+02  0.20799831E+02  0.21389637E+02
  0.35432323E+02  0.20799831E+02  0.26601190E+02
  0.24755724E+02  0.14755724E+02  0.21389637E+02
  0.30799831E+02  0.14755724E+02  0.21389637E+02
  0.30799831E+02  0.14755724E+02  0.26601190E+02
  0.35432323E+02  0.14755724E+02  0.21389637E+02
  0.35432323E+02  0.14755724E+02  0.26601190E+02
  0.24755724E+02  0.10123233E+02  0.21389637E+02
  0.30799831E+02  0.10123233E+02  0.21389637E+02
  0.30799831E+02  0.10123233E+02  0.26601190E+02
  0.35432323E+02  0.10123233E+02  0.21389637E+02
  0.35432323E+02  0.10123233E+02  0.26601190E+02
  0.35432323E+02  0.10123233E+02  0.33400810E+02
  0.20123233E+02  0.43210101E+02  0.13896369E+01
  0.24755724E+02  0.43210101E+02  0.13896369E+01
  0.24755724E+02  0.43210101E+02  0.66011896E+01
  0.30799831E+02  0.43210101E+02  0.13896369E+01
  0.30799831E+02  0.43210101E+02  0.66011896E+01
  0.35432323E+02  0.43210101E+02  0.13896369E+01
  0.35432323E+02  0.43210101E+02  0.66011896E+01
  0.35432323E+02  0.43210101E+02  0.13400810E+02
  0.20123233E+02  0.38577609E+02  0.13896369E+01
  0.24755724E+02  0.38577609E+02  0.13896369E+01
  0.24755724E+02  0.38577609E+02  0.66011896E+01
  0.30799831E+02  0.38577609E+02  0.13896369E+01
  0.30799831E+02  0.38577609E+02  0.66011896E+01
  0.30799831E+02  0.38577609E+02  0.13400810E+02
  0.35432323E+02  0.38577609E+02  0.13896369E+01
  0.35432323E+02  0.38577609E+02  0.66011896E+01
  0.35432323E+02  0.38577609E+02  0.13400810E+02
  0.35432323E+02  0.38577609E+02  0.18612363E+02
  0.20123233E+02  0.32533502E+02  0.13896369E+01
  0.20123233E+02  0.32533502E+02  0.66011896E+01
  0.24755724E+02  0.32533502E+02  0.13896369E+01
  0.24755724E+02  0.32533502E+02  0.66011896E+01
  0.24755724E+02  0.32533502E+02  0.13400810E+02
  0.30799831E+02  0.32533502E+02  0.13896369E+01
  0.30799831E+02  0.32533502E+02  0.66011896E+01
  0.30799831E+02  0.32533502E+02  0.13400810E+02
  0.30799831E+02  0.32533502E+02  0.18612363E+02
  0.35432323E+02  0.32533502E+02  0.13896369E+01
  0.35432323E+02  0.32533502E+02  0.66011896E+01
  0.35432323E+02  0.32533502E+02  0.13400810E+02
  0.35432323E+02  0.32533502E+02  0.18612363E+02
  0.20123233E+02  0.27901011E+02  0.13896369E+01
  0.20123233E+02  0.27901011E+02  0.66011896E+01
  0.24755724E+02  0.27901011E+02  0.13896369E+01
  0.24755724E+02  0.27901011E+02  0.66011896E+01
  0.24755724E+02  0.27901011E+02  0.13400810E+02
  0.30799831E+02  0.27901011E+02  0.13896369E+01
  0.30799831E+02  0.27901011E+02  0.66011896E+01
  0.30799831E+02  0.27901011E+02  0.13400810E+02
  0.30799831E+02  0.27901011E+02  0.18612363E+02
  0.35432323E+02  0.27901011E+02  0.13896369E+01
  0.35432323E+02  0.27901011E+02  0.66011896E+01
  0.35432323E+02  0.27901011E+02  0.13400810E+02
  0.35432323E+02  0.27901011E+02  0.18612363E+02
  0.35432323E+02  0.32533502E+02  0.21389637E+02
  0.30799831E+02  0.27901011E+02  0.21389637E+02
  0.35432323E+02  0.27901011E+02  0.21389637E+02
  0.35432323E+02  0.27901011E+02  0.26601190E+02
  0.35432323E+02  0.56355387E+02  0.13896369E+01
  0.30799831E+02  0.50311280E+02  0.13896369E+01
  0.35432323E+02  0.50311280E+02  0.13896369E+01
  0.35432323E+02  0.50311280E+02  0.66011896E+01
  0.24755724E+02  0.45678788E+02  0.13896369E+01
  0.30799831E+02  0.45678788E+02  0.13896369E+01
  0.30799831E+02  0.45678788E+02  0.66011896E+01
  0.35432323E+02  0.45678788E+02  0.13896369E+01
  0.35432323E+02  0.45678788E+02  0.66011896E+01
  0.35432323E+02  0.45678788E+02  0.13400810E+02
  0.42533502E+02 -0.63456566E+02  0.13896369E+01
  0.48577609E+02 -0.63456566E+02  0.13896369E+01
  0.48577609E+02 -0.63456566E+02  0.66011896E+01
  0.53210101E+02 -0.63456566E+02  0.13896369E+01
  0.53210101E+02 -0.63456566E+02  0.66011896E+01
  0.48577609E+02 -0.68089057E+02  0.13896369E+01
  0.53210101E+02 -0.68089057E+02  0.13896369E+01
  0.37901011E+02 -0.45678788E+02  0.13896369E+01
  0.37901011E+02 -0.45678788E+02  0.66011896E+01
  0.37901011E+02 -0.45678788E+02  0.13400810E+02
  0.42533502E+02 -0.45678788E+02  0.13896369E+01
  0.42533502E+02 -0.45678788E+02  0.66011896E+01
  0.42533502E+02 -0.45678788E+02  0.13400810E+02
  0.42533502E+02 -0.45678788E+02  0.18612363E+02
  0.48577609E+02 -0.45678788E+02  0.13896369E+01
  0.48577609E+02 -0.45678788E+02  0.66011896E+01
  0.48577609E+02 -0.45678788E+02  0.13400810E+02
  0.48577609E+02 -0.45678788E+02  0.18612363E+02
  0.53210101E+02 -0.45678788E+02  0.13896369E+01
  0.53210101E+02 -0.45678788E+02  0.66011896E+01
  0.53210101E+02 -0.45678788E+02  0.13400810E+02
  0.53210101E+02 -0.45678788E+02  0.18612363E+02
  0.37901011E+02 -0.50311280E+02  0.13896369E+01
  0.37901011E+02 -0.50311280E+02  0.66011896E+01
  0.42533502E+02 -0.50311280E+02  0.13896369E+01
  0.42533502E+02 -0.50311280E+02  0.66011896E+01
  0.42533502E+02 -0.50311280E+02  0.13400810E+02
  0.48577609E+02 -0.50311280E+02  0.13896369E+01
  0.48577609E+02 -0.50311280E+02  0.66011896E+01
  0.48577609E+02 -0.50311280E+02  0.13400810E+02
  0.48577609E+02 -0.50311280E+02  0.18612363E+02
  0.53210101E+02 -0.50311280E+02  0.13896369E+01
  0.53210101E+02 -0.50311280E+02  0.66011896E+01
  0.53210101E+02 -0.50311280E+02  0.13400810E+02
  0.53210101E+02 -0.50311280E+02  0.18612363E+02
  0.37901011E+02 -0.56355387E+02  0.13896369E+01
  0.37901011E+02 -0.56355387E+02  0.66011896E+01
  0.42533502E+02 -0.56355387E+02  0.13896369E+01
  0.42533502E+02 -0.56355387E+02  0.66011896E+01
  0.48577609E+02 -0.56355387E+02  0.13896369E+01
  0.48577609E+02 -0.56355387E+02  0.66011896E+01
  0.48577609E+02 -0.56355387E+02  0.13400810E+02
  0.53210101E+02 -0.56355387E+02  0.13896369E+01
  0.53210101E+02 -0.56355387E+02  0.66011896E+01
  0.53210101E+02 -0.56355387E+02  0.13400810E+02
  0.53210101E+02 -0.56355387E+02  0.18612363E+02
  0.42533502E+02 -0.60987878E+02  0.13896369E+01
  0.48577609E+02 -0.60987878E+02  0.13896369E+01
  0.48577609E+02 -0.60987878E+02  0.66011896E+01
  0.53210101E+02 -0.60987878E+02  0.13896369E+01
  0.53210101E+02 -0.60987878E+02  0.66011896E+01
  0.53210101E+02 -0.60987878E+02  0.13400810E+02
  0.42533502E+02 -0.45678788E+02  0.21389637E+02
  0.48577609E+02 -0.45678788E+02  0.21389637E+02
  0.48577609E+02 -0.45678788E+02  0.26601190E+02
  0.53210101E+02 -0.45678788E+02  0.21389637E+02
  0.53210101E+02 -0.45678788E+02  0.26601190E+02
  0.48577609E+02 -0.50311280E+02  0.21389637E+02
  0.53210101E+02 -0.50311280E+02  0.21389637E+02
  0.53210101E+02 -0.50311280E+02  0.26601190E+02
  0.53210101E+02 -0.56355387E+02  0.21389637E+02
  0.37901011E+02 -0.27901011E+02  0.13896369E+01
  0.37901011E+02 -0.27901011E+02  0.66011896E+01
  0.37901011E+02 -0.27901011E+02  0.13400810E+02
  0.37901011E+02 -0.27901011E+02  0.18612363E+02
  0.42533502E+02 -0.27901011E+02  0.13896369E+01
  0.42533502E+02 -0.27901011E+02  0.66011896E+01
  0.42533502E+02 -0.27901011E+02  0.13400810E+02
  0.42533502E+02 -0.27901011E+02  0.18612363E+02
  0.48577609E+02 -0.27901011E+02  0.13896369E+01
  0.48577609E+02 -0.27901011E+02  0.66011896E+01
  0.48577609E+02 -0.27901011E+02  0.13400810E+02
  0.48577609E+02 -0.27901011E+02  0.18612363E+02
  0.53210101E+02 -0.27901011E+02  0.13896369E+01
  0.53210101E+02 -0.27901011E+02  0.66011896E+01
  0.53210101E+02 -0.27901011E+02  0.13400810E+02
  0.53210101E+02 -0.27901011E+02  0.18612363E+02
  0.37901011E+02 -0.32533502E+02  0.13896369E+01
  0.37901011E+02 -0.32533502E+02  0.66011896E+01
  0.37901011E+02 -0.32533502E+02  0.13400810E+02
  0.37901011E+02 -0.32533502E+02  0.18612363E+02
  0.42533502E+02 -0.32533502E+02  0.13896369E+01
  0.42533502E+02 -0.32533502E+02  0.66011896E+01
  0.42533502E+02 -0.32533502E+02  0.13400810E+02
  0.42533502E+02 -0.32533502E+02  0.18612363E+02
  0.48577609E+02 -0.32533502E+02  0.13896369E+01
  0.48577609E+02 -0.32533502E+02  0.66011896E+01
  0.48577609E+02 -0.32533502E+02  0.13400810E+02
  0.48577609E+02 -0.32533502E+02  0.18612363E+02
  0.53210101E+02 -0.32533502E+02  0.13896369E+01
  0.53210101E+02 -0.32533502E+02  0.66011896E+01
  0.53210101E+02 -0.32533502E+02  0.13400810E+02
  0.53210101E+02 -0.32533502E+02  0.18612363E+02
  0.37901011E+02 -0.38577609E+02  0.13896369E+01
  0.37901011E+02 -0.38577609E+02  0.66011896E+01
  0.37901011E+02 -0.38577609E+02  0.13400810E+02
  0.37901011E+02 -0.38577609E+02  0.18612363E+02
  0.42533502E+02 -0.38577609E+02  0.13896369E+01
  0.42533502E+02 -0.38577609E+02  0.66011896E+01
  0.42533502E+02 -0.38577609E+02  0.13400810E+02
  0.42533502E+02 -0.38577609E+02  0.18612363E+02
  0.48577609E+02 -0.38577609E+02  0.13896369E+01
  0.48577609E+02 -0.38577609E+02  0.66011896E+01
  0.48577609E+02 -0.38577609E+02  0.13400810E+02
  0.48577609E+02 -0.38577609E+02  0.18612363E+02
  0.53210101E+02 -0.38577609E+02  0.13896369E+01
  0.53210101E+02 -0.38577609E+02  0.66011896E+01
  0.53210101E+02 -0.38577609E+02  0.13400810E+02
  0.53210101E+02 -0.38577609E+02  0.18612363E+02
  0.37901011E+02 -0.43210101E+02  0.13896369E+01
  0.37901011E+02 -0.43210101E+02  0.66011896E+01
  0.37901011E+02 -0.43210101E+02  0.13400810E+02
  0.37901011E+02 -0.43210101E+02  0.18612363E+02
  0.42533502E+02 -0.43210101E+02  0.13896369E+01
  0.42533502E+02 -0.43210101E+02  0.66011896E+01
  0.42533502E+02 -0.43210101E+02  0.13400810E+02
  0.42533502E+02 -0.43210101E+02  0.18612363E+02
  0.48577609E+02 -0.43210101E+02  0.13896369E+01
  0.48577609E+02 -0.43210101E+02  0.66011896E+01
  0.48577609E+02 -0.43210101E+02  0.13400810E+02
  0.48577609E+02 -0.43210101E+02  0.18612363E+02
  0.53210101E+02 -0.43210101E+02  0.13896369E+01
  0.53210101E+02 -0.43210101E+02  0.66011896E+01
  0.53210101E+02 -0.43210101E+02  0.13400810E+02
  0.53210101E+02 -0.43210101E+02  0.18612363E+02
  0.37901011E+02 -0.27901011E+02  0.21389637E+02
  0.37901011E+02 -0.27901011E+02  0.26601190E+02
  0.42533502E+02 -0.27901011E+02  0.21389637E+02
  0.42533502E+02 -0.27901011E+02  0.26601190E+02
  0.42533502E+02 -0.27901011E+02  0.33400810E+02
  0.48577609E+02 -0.27901011E+02  0.21389637E+02
  0.48577609E+02 -0.27901011E+02  0.26601190E+02
  0.48577609E+02 -0.27901011E+02  0.33400810E+02
  0.48577609E+02 -0.27901011E+02  0.38612363E+02
  0.53210101E+02 -0.27901011E+02  0.21389637E+02
  0.53210101E+02 -0.27901011E+02  0.26601190E+02
  0.53210101E+02 -0.27901011E+02  0.33400810E+02
  0.53210101E+02 -0.27901011E+02  0.38612363E+02
  0.37901011E+02 -0.32533502E+02  0.21389637E+02
  0.37901011E+02 -0.32533502E+02  0.26601190E+02
  0.42533502E+02 -0.32533502E+02  0.21389637E+02
  0.42533502E+02 -0.32533502E+02  0.26601190E+02
  0.48577609E+02 -0.32533502E+02  0.21389637E+02
  0.48577609E+02 -0.32533502E+02  0.26601190E+02
  0.48577609E+02 -0.32533502E+02  0.33400810E+02
  0.48577609E+02 -0.32533502E+02  0.38612363E+02
  0.53210101E+02 -0.32533502E+02  0.21389637E+02
  0.53210101E+02 -0.32533502E+02  0.26601190E+02
  0.53210101E+02 -0.32533502E+02  0.33400810E+02
  0.53210101E+02 -0.32533502E+02  0.38612363E+02
  0.37901011E+02 -0.38577609E+02  0.21389637E+02
  0.42533502E+02 -0.38577609E+02  0.21389637E+02
  0.42533502E+02 -0.38577609E+02  0.26601190E+02
  0.48577609E+02 -0.38577609E+02  0.21389637E+02
  0.48577609E+02 -0.38577609E+02  0.26601190E+02
  0.48577609E+02 -0.38577609E+02  0.33400810E+02
  0.53210101E+02 -0.38577609E+02  0.21389637E+02
  0.53210101E+02 -0.38577609E+02  0.26601190E+02
  0.53210101E+02 -0.38577609E+02  0.33400810E+02
  0.53210101E+02 -0.38577609E+02  0.38612363E+02
  0.42533502E+02 -0.43210101E+02  0.21389637E+02
  0.48577609E+02 -0.43210101E+02  0.21389637E+02
  0.48577609E+02 -0.43210101E+02  0.26601190E+02
  0.53210101E+02 -0.43210101E+02  0.21389637E+02
  0.53210101E+02 -0.43210101E+02  0.26601190E+02
  0.53210101E+02 -0.43210101E+02  0.33400810E+02
  0.53210101E+02 -0.27901011E+02  0.41389637E+02
  0.53210101E+02 -0.32533502E+02  0.41389637E+02
  0.37901011E+02 -0.10123233E+02  0.13896369E+01
  0.37901011E+02 -0.10123233E+02  0.66011896E+01
  0.37901011E+02 -0.10123233E+02  0.13400810E+02
  0.37901011E+02 -0.10123233E+02  0.18612363E+02
  0.42533502E+02 -0.10123233E+02  0.13896369E+01
  0.42533502E+02 -0.10123233E+02  0.66011896E+01
  0.42533502E+02 -0.10123233E+02  0.13400810E+02
  0.42533502E+02 -0.10123233E+02  0.18612363E+02
  0.48577609E+02 -0.10123233E+02  0.13896369E+01
  0.48577609E+02 -0.10123233E+02  0.66011896E+01
  0.48577609E+02 -0.10123233E+02  0.13400810E+02
  0.48577609E+02 -0.10123233E+02  0.18612363E+02
  0.53210101E+02 -0.10123233E+02  0.13896369E+01
  0.53210101E+02 -0.10123233E+02  0.66011896E+01
  0.53210101E+02 -0.10123233E+02  0.13400810E+02
  0.53210101E+02 -0.10123233E+02  0.18612363E+02
  0.37901011E+02 -0.14755724E+02  0.13896369E+01
  0.37901011E+02 -0.14755724E+02  0.66011896E+01
  0.37901011E+02 -0.14755724E+02  0.13400810E+02
  0.37901011E+02 -0.14755724E+02  0.18612363E+02
  0.42533502E+02 -0.14755724E+02  0.13896369E+01
  0.42533502E+02 -0.14755724E+02  0.66011896E+01
  0.42533502E+02 -0.14755724E+02  0.13400810E+02
  0.42533502E+02 -0.14755724E+02  0.18612363E+02
  0.48577609E+02 -0.14755724E+02  0.13896369E+01
  0.48577609E+02 -0.14755724E+02  0.66011896E+01
  0.48577609E+02 -0.14755724E+02  0.13400810E+02
  0.48577609E+02 -0.14755724E+02  0.18612363E+02
  0.53210101E+02 -0.14755724E+02  0.13896369E+01
  0.53210101E+02 -0.14755724E+02  0.66011896E+01
  0.53210101E+02 -0.14755724E+02  0.13400810E+02
  0.53210101E+02 -0.14755724E+02  0.18612363E+02
  0.37901011E+02 -0.20799831E+02  0.13896369E+01
  0.37901011E+02 -0.20799831E+02  0.66011896E+01
  0.37901011E+02 -0.20799831E+02  0.13400810E+02
  0.37901011E+02 -0.20799831E+02  0.18612363E+02
  0.42533502E+02 -0.20799831E+02  0.13896369E+01
  0.42533502E+02 -0.20799831E+02  0.66011896E+01
  0.42533502E+02 -0.20799831E+02  0.13400810E+02
  0.42533502E+02 -0.20799831E+02  0.18612363E+02
  0.48577609E+02 -0.20799831E+02  0.13896369E+01