TITLE = "Mask Points"
VARIABLES = "x","y","z"
ZONE I=13774,J=2,K=1, DATAPACKING=POINT
  0.41043E+01  0.13964E+01  0.81556E+00
  0.41277E+01  0.13964E+01  0.81560E+00
  0.41042E+01  0.13964E+01  0.82263E+00
  0.41277E+01  0.13964E+01  0.82267E+00
  0.41042E+01  0.13964E+01  0.83184E+00
  0.41043E+01  0.13936E+01  0.81720E+00
  0.41277E+01  0.13936E+01  0.81724E+00
  0.41042E+01  0.13936E+01  0.82428E+00
  0.41277E+01  0.13936E+01  0.82432E+00
  0.41042E+01  0.13936E+01  0.83350E+00
  0.41277E+01  0.13936E+01  0.83354E+00
  0.41043E+01  0.13884E+01  0.82029E+00
  0.41277E+01  0.13884E+01  0.82033E+00
  0.41042E+01  0.13884E+01  0.82737E+00
  0.41277E+01  0.13884E+01  0.82741E+00
  0.41042E+01  0.13884E+01  0.83662E+00
  0.41277E+01  0.13884E+01  0.83666E+00
  0.41042E+01  0.13884E+01  0.84370E+00
  0.41277E+01  0.13884E+01  0.84374E+00
  0.41042E+01  0.13816E+01  0.82431E+00
  0.41277E+01  0.13816E+01  0.82435E+00
  0.41042E+01  0.13816E+01  0.83141E+00
  0.41277E+01  0.13816E+01  0.83145E+00
  0.41042E+01  0.13816E+01  0.84068E+00
  0.41277E+01  0.13816E+01  0.84072E+00
  0.41042E+01  0.13816E+01  0.84778E+00
  0.41276E+01  0.13816E+01  0.84783E+00
  0.41042E+01  0.13764E+01  0.82739E+00
  0.41277E+01  0.13764E+01  0.82743E+00
  0.41042E+01  0.13764E+01  0.83451E+00
  0.41277E+01  0.13764E+01  0.83455E+00
  0.41042E+01  0.13764E+01  0.84380E+00
  0.41277E+01  0.13764E+01  0.84384E+00
  0.41042E+01  0.13764E+01  0.85091E+00
  0.41276E+01  0.13764E+01  0.85095E+00
  0.41043E+01  0.13936E+01  0.79682E+00
  0.41043E+01  0.13936E+01  0.80621E+00
  0.41277E+01  0.13936E+01  0.80625E+00
  0.41043E+01  0.13936E+01  0.81340E+00
  0.41277E+01  0.13936E+01  0.81344E+00
  0.41043E+01  0.13884E+01  0.79265E+00
  0.41277E+01  0.13884E+01  0.79269E+00
  0.41043E+01  0.13884E+01  0.79986E+00
  0.41277E+01  0.13884E+01  0.79990E+00
  0.41043E+01  0.13884E+01  0.80927E+00
  0.41277E+01  0.13884E+01  0.80931E+00
  0.41043E+01  0.13884E+01  0.81648E+00
  0.41277E+01  0.13884E+01  0.81652E+00
  0.41043E+01  0.13816E+01  0.79660E+00
  0.41277E+01  0.13816E+01  0.79664E+00
  0.41043E+01  0.13816E+01  0.80383E+00
  0.41277E+01  0.13816E+01  0.80387E+00
  0.41043E+01  0.13816E+01  0.81326E+00
  0.41277E+01  0.13816E+01  0.81330E+00
  0.41043E+01  0.13816E+01  0.82049E+00
  0.41277E+01  0.13816E+01  0.82053E+00
  0.41043E+01  0.13764E+01  0.79963E+00
  0.41277E+01  0.13764E+01  0.79967E+00
  0.41043E+01  0.13764E+01  0.80687E+00
  0.41277E+01  0.13764E+01  0.80691E+00
  0.41043E+01  0.13764E+01  0.81632E+00
  0.41277E+01  0.13764E+01  0.81636E+00
  0.41042E+01  0.13764E+01  0.82357E+00
  0.41277E+01  0.13764E+01  0.82361E+00
  0.41043E+01  0.13884E+01  0.78877E+00
  0.41043E+01  0.13816E+01  0.78536E+00
  0.41278E+01  0.13816E+01  0.78539E+00
  0.41043E+01  0.13816E+01  0.79271E+00
  0.41277E+01  0.13816E+01  0.79275E+00
  0.41043E+01  0.13764E+01  0.77874E+00
  0.41043E+01  0.13764E+01  0.78836E+00
  0.41277E+01  0.13764E+01  0.78840E+00
  0.41043E+01  0.13764E+01  0.79573E+00
  0.41277E+01  0.13764E+01  0.79577E+00
  0.41043E+01  0.13964E+01  0.80457E+00
  0.41277E+01  0.13964E+01  0.80461E+00
  0.41043E+01  0.13964E+01  0.81176E+00
  0.41277E+01  0.13964E+01  0.81180E+00
  0.41042E+01  0.13816E+01  0.85154E+00
  0.41042E+01  0.13764E+01  0.85467E+00
  0.41276E+01  0.13764E+01  0.85471E+00
  0.36629E+01  0.17336E+01  0.90683E+00
  0.36629E+01  0.17336E+01  0.91268E+00
  0.36629E+01  0.17284E+01  0.90255E+00
  0.36629E+01  0.17284E+01  0.91019E+00
  0.36629E+01  0.17216E+01  0.90109E+00
  0.36629E+01  0.17216E+01  0.90694E+00
  0.36629E+01  0.17164E+01  0.90445E+00
  0.36629E+01  0.17164E+01  0.91030E+00
  0.36592E+01  0.17336E+01  0.89918E+00
  0.36609E+01  0.17336E+01  0.89919E+00
  0.36622E+01  0.17336E+01  0.89919E+00
  0.36608E+01  0.17336E+01  0.90682E+00
  0.36621E+01  0.17336E+01  0.90683E+00
  0.36608E+01  0.17336E+01  0.91268E+00
  0.36621E+01  0.17336E+01  0.91268E+00
  0.36592E+01  0.17284E+01  0.89669E+00
  0.36609E+01  0.17284E+01  0.89670E+00
  0.36592E+01  0.17284E+01  0.90255E+00
  0.36609E+01  0.17284E+01  0.90255E+00
  0.36622E+01  0.17284E+01  0.90255E+00
  0.36608E+01  0.17284E+01  0.91018E+00
  0.36621E+01  0.17284E+01  0.91019E+00
  0.36621E+01  0.17284E+01  0.91604E+00
  0.36592E+01  0.17216E+01  0.90108E+00
  0.36609E+01  0.17216E+01  0.90109E+00
  0.36622E+01  0.17216E+01  0.90109E+00
  0.36608E+01  0.17216E+01  0.90694E+00
  0.36621E+01  0.17216E+01  0.90694E+00
  0.36621E+01  0.17216E+01  0.91457E+00
  0.36608E+01  0.17164E+01  0.90445E+00
  0.36622E+01  0.17164E+01  0.90445E+00
  0.36621E+01  0.17164E+01  0.91030E+00
  0.36621E+01  0.17164E+01  0.91793E+00
  0.36621E+01  0.17336E+01  0.91579E+00
  0.36621E+01  0.17284E+01  0.91915E+00
  0.36592E+01  0.17536E+01  0.90290E+00
  0.36609E+01  0.17536E+01  0.90290E+00
  0.36622E+01  0.17536E+01  0.90290E+00
  0.36608E+01  0.17536E+01  0.90874E+00
  0.36621E+01  0.17536E+01  0.90874E+00
  0.36608E+01  0.17536E+01  0.91636E+00
  0.36621E+01  0.17536E+01  0.91636E+00
  0.36591E+01  0.17484E+01  0.90626E+00
  0.36608E+01  0.17484E+01  0.90626E+00
  0.36621E+01  0.17484E+01  0.90626E+00
  0.36608E+01  0.17484E+01  0.91210E+00
  0.36621E+01  0.17484E+01  0.91210E+00
  0.36621E+01  0.17484E+01  0.91971E+00
  0.36608E+01  0.17416E+01  0.91064E+00
  0.36621E+01  0.17416E+01  0.91064E+00
  0.36621E+01  0.17416E+01  0.91648E+00
  0.36621E+01  0.17364E+01  0.91400E+00
  0.36621E+01  0.17364E+01  0.91983E+00
  0.36629E+01  0.17536E+01  0.90874E+00
  0.36629E+01  0.17484E+01  0.90626E+00
  0.36629E+01  0.17484E+01  0.91210E+00
  0.36629E+01  0.17416E+01  0.91065E+00
  0.36629E+01  0.17616E+01  0.91122E+00
  0.36591E+01  0.17736E+01  0.90934E+00
  0.36608E+01  0.17736E+01  0.90934E+00
  0.36621E+01  0.17736E+01  0.90934E+00
  0.36591E+01  0.17684E+01  0.90684E+00
  0.36608E+01  0.17684E+01  0.90684E+00
  0.36621E+01  0.17684E+01  0.90685E+00
  0.36608E+01  0.17684E+01  0.91269E+00
  0.36621E+01  0.17684E+01  0.91269E+00
  0.36592E+01  0.17616E+01  0.90359E+00
  0.36609E+01  0.17616E+01  0.90360E+00
  0.36608E+01  0.17616E+01  0.91122E+00
  0.36621E+01  0.17616E+01  0.91122E+00
  0.36608E+01  0.17616E+01  0.91706E+00
  0.36621E+01  0.17616E+01  0.91706E+00
  0.36592E+01  0.17564E+01  0.90111E+00
  0.36609E+01  0.17564E+01  0.90111E+00
  0.36591E+01  0.17564E+01  0.90695E+00
  0.36608E+01  0.17564E+01  0.90695E+00
  0.36621E+01  0.17564E+01  0.90695E+00
  0.36608E+01  0.17564E+01  0.91457E+00
  0.36621E+01  0.17564E+01  0.91457E+00
  0.36621E+01  0.17564E+01  0.92041E+00
  0.36591E+01  0.17736E+01  0.91245E+00
  0.36608E+01  0.17736E+01  0.91245E+00
  0.36621E+01  0.17736E+01  0.91245E+00
  0.36608E+01  0.17736E+01  0.91828E+00
  0.36621E+01  0.17736E+01  0.91828E+00
  0.36608E+01  0.17736E+01  0.92589E+00
  0.36608E+01  0.17684E+01  0.91580E+00
  0.36621E+01  0.17684E+01  0.91580E+00
  0.36608E+01  0.17684E+01  0.92163E+00
  0.36621E+01  0.17684E+01  0.92163E+00
  0.36608E+01  0.17616E+01  0.92017E+00
  0.36621E+01  0.17616E+01  0.92017E+00
  0.36608E+01  0.17884E+01  0.92536E+00
  0.36591E+01  0.17936E+01  0.91307E+00
  0.36608E+01  0.17936E+01  0.91307E+00
  0.36621E+01  0.17936E+01  0.91308E+00
  0.36608E+01  0.17884E+01  0.90879E+00
  0.36591E+01  0.17884E+01  0.91641E+00
  0.36608E+01  0.17884E+01  0.91641E+00
  0.36621E+01  0.17884E+01  0.91642E+00
  0.36608E+01  0.17884E+01  0.92226E+00
  0.36608E+01  0.17816E+01  0.90732E+00
  0.36591E+01  0.17816E+01  0.91315E+00
  0.36608E+01  0.17816E+01  0.91316E+00
  0.36621E+01  0.17816E+01  0.91316E+00
  0.36608E+01  0.17816E+01  0.92077E+00
  0.36621E+01  0.17816E+01  0.92077E+00
  0.36608E+01  0.17816E+01  0.92661E+00
  0.36591E+01  0.17764E+01  0.91067E+00
  0.36608E+01  0.17764E+01  0.91067E+00
  0.36621E+01  0.17764E+01  0.91067E+00
  0.36608E+01  0.17764E+01  0.91650E+00
  0.36621E+01  0.17764E+01  0.91650E+00
  0.36608E+01  0.17764E+01  0.92411E+00
  0.36591E+01  0.17764E+01  0.90755E+00
  0.36608E+01  0.17764E+01  0.90755E+00
  0.36629E+01  0.17416E+01  0.90753E+00
  0.36629E+01  0.17364E+01  0.90504E+00
  0.36629E+01  0.17364E+01  0.91089E+00
  0.36609E+01  0.17536E+01  0.89979E+00
  0.36592E+01  0.17484E+01  0.90314E+00
  0.36609E+01  0.17484E+01  0.90314E+00
  0.36622E+01  0.17484E+01  0.90315E+00
  0.36592E+01  0.17416E+01  0.90167E+00
  0.36609E+01  0.17416E+01  0.90167E+00
  0.36622E+01  0.17416E+01  0.90167E+00
  0.36608E+01  0.17416E+01  0.90753E+00
  0.36621E+01  0.17416E+01  0.90753E+00
  0.36592E+01  0.17364E+01  0.89739E+00
  0.36609E+01  0.17364E+01  0.89739E+00
  0.36608E+01  0.17364E+01  0.90503E+00
  0.36622E+01  0.17364E+01  0.90503E+00
  0.36608E+01  0.17364E+01  0.91089E+00
  0.36621E+01  0.17364E+01  0.91089E+00
  0.36592E+01  0.17284E+01  0.89357E+00
  0.36609E+01  0.17284E+01  0.89357E+00
  0.36592E+01  0.17216E+01  0.89208E+00
  0.36609E+01  0.17216E+01  0.89208E+00
  0.36592E+01  0.17216E+01  0.89796E+00
  0.36609E+01  0.17216E+01  0.89796E+00
  0.36622E+01  0.17216E+01  0.89796E+00
  0.36592E+01  0.17164E+01  0.89545E+00
  0.36609E+01  0.17164E+01  0.89545E+00
  0.36622E+01  0.17164E+01  0.89545E+00
  0.36609E+01  0.17164E+01  0.90133E+00
  0.36622E+01  0.17164E+01  0.90133E+00
  0.36629E+01  0.17164E+01  0.90133E+00
  0.36580E+01  0.15416E+01  0.85078E+00
  0.36593E+01  0.15416E+01  0.85079E+00
  0.36610E+01  0.15416E+01  0.85079E+00
  0.36580E+01  0.15364E+01  0.84768E+00
  0.36593E+01  0.15364E+01  0.84769E+00
  0.36580E+01  0.15364E+01  0.85406E+00
  0.36593E+01  0.15364E+01  0.85406E+00
  0.36610E+01  0.15364E+01  0.85407E+00
  0.36623E+01  0.15364E+01  0.85407E+00
  0.36573E+01  0.15416E+01  0.85078E+00
  0.36573E+01  0.15364E+01  0.84768E+00
  0.36573E+01  0.15364E+01  0.85406E+00
  0.36631E+01  0.15364E+01  0.85407E+00
  0.36573E+01  0.15736E+01  0.85466E+00
  0.36573E+01  0.15616E+01  0.85601E+00
  0.36573E+01  0.15564E+01  0.85112E+00
  0.36580E+01  0.15736E+01  0.85466E+00
  0.36593E+01  0.15736E+01  0.85467E+00
  0.36580E+01  0.15684E+01  0.85797E+00
  0.36593E+01  0.15684E+01  0.85797E+00
  0.36610E+01  0.15684E+01  0.85797E+00
  0.36623E+01  0.15684E+01  0.85797E+00
  0.36580E+01  0.15616E+01  0.85601E+00
  0.36593E+01  0.15616E+01  0.85601E+00
  0.36610E+01  0.15616E+01  0.85602E+00
  0.36580E+01  0.15616E+01  0.86228E+00
  0.36593E+01  0.15616E+01  0.86228E+00
  0.36610E+01  0.15616E+01  0.86228E+00
  0.36623E+01  0.15616E+01  0.86229E+00
  0.36580E+01  0.15564E+01  0.85112E+00
  0.36593E+01  0.15564E+01  0.85112E+00
  0.36580E+01  0.15564E+01  0.85931E+00
  0.36593E+01  0.15564E+01  0.85931E+00
  0.36610E+01  0.15564E+01  0.85931E+00
  0.36623E+01  0.15564E+01  0.85931E+00
  0.36593E+01  0.15564E+01  0.86559E+00
  0.36610E+01  0.15564E+01  0.86559E+00
  0.36623E+01  0.15564E+01  0.86559E+00
  0.36631E+01  0.15616E+01  0.86229E+00
  0.36647E+01  0.15616E+01  0.86229E+00
  0.36631E+01  0.15564E+01  0.85932E+00
  0.36630E+01  0.15564E+01  0.86559E+00
  0.36647E+01  0.15564E+01  0.86559E+00
  0.36580E+01  0.15964E+01  0.86389E+00
  0.36593E+01  0.15964E+01  0.86389E+00
  0.36610E+01  0.15964E+01  0.86389E+00
  0.36630E+01  0.16936E+01  0.89347E+00
  0.36630E+01  0.16884E+01  0.89093E+00
  0.36630E+01  0.16884E+01  0.89684E+00
  0.36630E+01  0.16816E+01  0.89532E+00
  0.36629E+01  0.16816E+01  0.90123E+00
  0.36630E+01  0.16764E+01  0.89096E+00
  0.36630E+01  0.16764E+01  0.89868E+00
  0.36629E+01  0.16764E+01  0.90460E+00
  0.36630E+01  0.17136E+01  0.89724E+00
  0.36629E+01  0.17136E+01  0.90312E+00
  0.36629E+01  0.17084E+01  0.90061E+00
  0.36629E+01  0.17084E+01  0.90649E+00
  0.36630E+01  0.17016E+01  0.89733E+00
  0.36629E+01  0.17016E+01  0.90500E+00
  0.36629E+01  0.17016E+01  0.91088E+00
  0.36630E+01  0.16964E+01  0.89482E+00
  0.36629E+01  0.16964E+01  0.90070E+00
  0.36629E+01  0.16964E+01  0.90836E+00
  0.36592E+01  0.17136E+01  0.88957E+00
  0.36592E+01  0.17136E+01  0.89724E+00
  0.36609E+01  0.17136E+01  0.89724E+00
  0.36622E+01  0.17136E+01  0.89724E+00
  0.36609E+01  0.17136E+01  0.90312E+00
  0.36622E+01  0.17136E+01  0.90312E+00
  0.36592E+01  0.17084E+01  0.89293E+00
  0.36609E+01  0.17084E+01  0.89294E+00
  0.36622E+01  0.17084E+01  0.89294E+00
  0.36609E+01  0.17084E+01  0.90061E+00
  0.36622E+01  0.17084E+01  0.90061E+00
  0.36608E+01  0.17084E+01  0.90648E+00
  0.36621E+01  0.17084E+01  0.90649E+00
  0.36592E+01  0.17016E+01  0.89145E+00
  0.36609E+01  0.17016E+01  0.89145E+00
  0.36622E+01  0.17016E+01  0.89145E+00
  0.36592E+01  0.17016E+01  0.89733E+00
  0.36609E+01  0.17016E+01  0.89733E+00
  0.36622E+01  0.17016E+01  0.89733E+00
  0.36608E+01  0.17016E+01  0.90500E+00
  0.36622E+01  0.17016E+01  0.90500E+00
  0.36621E+01  0.17016E+01  0.91088E+00
  0.36592E+01  0.16964E+01  0.89481E+00
  0.36609E+01  0.16964E+01  0.89482E+00
  0.36622E+01  0.16964E+01  0.89482E+00
  0.36609E+01  0.16964E+01  0.90069E+00
  0.36622E+01  0.16964E+01  0.90070E+00
  0.36621E+01  0.16964E+01  0.90836E+00
  0.36592E+01  0.16936E+01  0.88756E+00
  0.36609E+01  0.16936E+01  0.88756E+00
  0.36592E+01  0.16936E+01  0.89347E+00
  0.36609E+01  0.16936E+01  0.89347E+00
  0.36622E+01  0.16936E+01  0.89347E+00
  0.36592E+01  0.16884E+01  0.88321E+00
  0.36592E+01  0.16884E+01  0.89092E+00
  0.36609E+01  0.16884E+01  0.89092E+00
  0.36622E+01  0.16884E+01  0.89092E+00
  0.36609E+01  0.16884E+01  0.89683E+00
  0.36622E+01  0.16884E+01  0.89684E+00
  0.36592E+01  0.16816E+01  0.88168E+00
  0.36592E+01  0.16816E+01  0.88759E+00
  0.36609E+01  0.16816E+01  0.88760E+00
  0.36622E+01  0.16816E+01  0.88760E+00
  0.36609E+01  0.16816E+01  0.89531E+00
  0.36622E+01  0.16816E+01  0.89531E+00
  0.36622E+01  0.16816E+01  0.90123E+00
  0.36592E+01  0.16764E+01  0.88504E+00
  0.36609E+01  0.16764E+01  0.88505E+00
  0.36622E+01  0.16764E+01  0.88505E+00
  0.36592E+01  0.16764E+01  0.89096E+00
  0.36609E+01  0.16764E+01  0.89096E+00
  0.36622E+01  0.16764E+01  0.89096E+00
  0.36609E+01  0.16764E+01  0.89868E+00
  0.36622E+01  0.16764E+01  0.89868E+00
  0.36622E+01  0.16764E+01  0.90459E+00
  0.36592E+01  0.17016E+01  0.88831E+00
  0.36609E+01  0.17016E+01  0.88831E+00
  0.36592E+01  0.16964E+01  0.88576E+00
  0.36592E+01  0.16964E+01  0.89167E+00
  0.36609E+01  0.16964E+01  0.89168E+00
  0.36622E+01  0.16964E+01  0.89168E+00
  0.36592E+01  0.16764E+01  0.88188E+00
  0.36609E+01  0.16764E+01  0.88188E+00
  0.36630E+01  0.16684E+01  0.88704E+00
  0.36630E+01  0.16616E+01  0.88547E+00
  0.36630E+01  0.16616E+01  0.89143E+00
  0.36630E+01  0.16564E+01  0.88883E+00
  0.36630E+01  0.16564E+01  0.89479E+00
  0.36592E+01  0.16736E+01  0.88367E+00
  0.36609E+01  0.16736E+01  0.88368E+00
  0.36622E+01  0.16736E+01  0.88368E+00
  0.36592E+01  0.16684E+01  0.88108E+00
  0.36609E+01  0.16684E+01  0.88108E+00
  0.36592E+01  0.16684E+01  0.88704E+00
  0.36609E+01  0.16684E+01  0.88704E+00
  0.36622E+01  0.16684E+01  0.88704E+00
  0.36592E+01  0.16616E+01  0.87769E+00
  0.36592E+01  0.16616E+01  0.88546E+00
  0.36609E+01  0.16616E+01  0.88547E+00
  0.36622E+01  0.16616E+01  0.88547E+00
  0.36609E+01  0.16616E+01  0.89143E+00
  0.36622E+01  0.16616E+01  0.89143E+00
  0.36592E+01  0.16564E+01  0.87509E+00
  0.36592E+01  0.16564E+01  0.88105E+00
  0.36609E+01  0.16564E+01  0.88105E+00
  0.36622E+01  0.16564E+01  0.88105E+00
  0.36609E+01  0.16564E+01  0.88883E+00
  0.36622E+01  0.16564E+01  0.88883E+00
  0.36622E+01  0.16564E+01  0.89479E+00
  0.36630E+01  0.16536E+01  0.88284E+00
  0.36630E+01  0.16536E+01  0.89062E+00
  0.36630E+01  0.16536E+01  0.89658E+00
  0.36630E+01  0.16484E+01  0.88024E+00
  0.36630E+01  0.16484E+01  0.88620E+00
  0.36630E+01  0.16484E+01  0.89398E+00
  0.36646E+01  0.16484E+01  0.89398E+00
  0.36629E+01  0.16484E+01  0.89995E+00
  0.36630E+01  0.16416E+01  0.88461E+00
  0.36630E+01  0.16416E+01  0.89058E+00
  0.36646E+01  0.16416E+01  0.89058E+00
  0.36630E+01  0.16416E+01  0.89837E+00
  0.36646E+01  0.16416E+01  0.89837E+00
  0.36630E+01  0.16364E+01  0.88797E+00
  0.36646E+01  0.16364E+01  0.88797E+00
  0.36630E+01  0.16364E+01  0.89394E+00
  0.36646E+01  0.16364E+01  0.89394E+00
  0.36646E+01  0.16364E+01  0.90173E+00
  0.36592E+01  0.16536E+01  0.87687E+00
  0.36609E+01  0.16536E+01  0.87688E+00
  0.36592E+01  0.16536E+01  0.88284E+00
  0.36609E+01  0.16536E+01  0.88284E+00
  0.36622E+01  0.16536E+01  0.88284E+00
  0.36609E+01  0.16536E+01  0.89062E+00
  0.36622E+01  0.16536E+01  0.89062E+00
  0.36622E+01  0.16536E+01  0.89658E+00
  0.36592E+01  0.16484E+01  0.88023E+00
  0.36609E+01  0.16484E+01  0.88023E+00
  0.36622E+01  0.16484E+01  0.88023E+00
  0.36592E+01  0.16484E+01  0.88619E+00
  0.36609E+01  0.16484E+01  0.88620E+00
  0.36622E+01  0.16484E+01  0.88620E+00
  0.36622E+01  0.16484E+01  0.89398E+00
  0.36592E+01  0.16416E+01  0.88461E+00
  0.36609E+01  0.16416E+01  0.88461E+00
  0.36622E+01  0.16416E+01  0.88461E+00
  0.36609E+01  0.16416E+01  0.89058E+00
  0.36622E+01  0.16416E+01  0.89058E+00
  0.36609E+01  0.16364E+01  0.88797E+00
  0.36622E+01  0.16364E+01  0.88797E+00
  0.36622E+01  0.16364E+01  0.89394E+00
  0.36630E+01  0.16416E+01  0.88142E+00
  0.36630E+01  0.16364E+01  0.87876E+00
  0.36630E+01  0.16364E+01  0.88478E+00
  0.36646E+01  0.16364E+01  0.88478E+00
  0.36592E+01  0.16484E+01  0.87704E+00
  0.36609E+01  0.16484E+01  0.87704E+00
  0.36592E+01  0.16416E+01  0.87540E+00
  0.36609E+01  0.16416E+01  0.87540E+00
  0.36592E+01  0.16416E+01  0.88142E+00
  0.36609E+01  0.16416E+01  0.88142E+00
  0.36622E+01  0.16416E+01  0.88142E+00
  0.36592E+01  0.16364E+01  0.87090E+00
  0.36592E+01  0.16364E+01  0.87875E+00
  0.36609E+01  0.16364E+01  0.87876E+00
  0.36622E+01  0.16364E+01  0.87876E+00
  0.36609E+01  0.16364E+01  0.88477E+00
  0.36622E+01  0.16364E+01  0.88478E+00
  0.36630E+01  0.16164E+01  0.87450E+00
  0.36592E+01  0.16216E+01  0.87115E+00
  0.36609E+01  0.16216E+01  0.87115E+00
  0.36622E+01  0.16216E+01  0.87115E+00
  0.36592E+01  0.16164E+01  0.86841E+00
  0.36609E+01  0.16164E+01  0.86841E+00
  0.36592E+01  0.16164E+01  0.87449E+00
  0.36609E+01  0.16164E+01  0.87449E+00
  0.36622E+01  0.16164E+01  0.87449E+00
  0.36592E+01  0.16336E+01  0.87269E+00
  0.36609E+01  0.16336E+01  0.87269E+00
  0.36592E+01  0.16336E+01  0.88054E+00
  0.36609E+01  0.16336E+01  0.88054E+00
  0.36622E+01  0.16336E+01  0.88054E+00
  0.36609E+01  0.16336E+01  0.88656E+00
  0.36622E+01  0.16336E+01  0.88656E+00
  0.36592E+01  0.16284E+01  0.87001E+00
  0.36609E+01  0.16284E+01  0.87001E+00
  0.36592E+01  0.16284E+01  0.87603E+00
  0.36609E+01  0.16284E+01  0.87604E+00
  0.36622E+01  0.16284E+01  0.87604E+00
  0.36609E+01  0.16284E+01  0.88389E+00
  0.36622E+01  0.16284E+01  0.88390E+00
  0.36622E+01  0.16284E+01  0.88992E+00
  0.36592E+01  0.16216E+01  0.87437E+00
  0.36609E+01  0.16216E+01  0.87438E+00
  0.36622E+01  0.16216E+01  0.87438E+00
  0.36592E+01  0.16216E+01  0.88040E+00
  0.36609E+01  0.16216E+01  0.88040E+00
  0.36622E+01  0.16216E+01  0.88041E+00
  0.36622E+01  0.16216E+01  0.88827E+00
  0.36592E+01  0.16164E+01  0.87772E+00
  0.36609E+01  0.16164E+01  0.87772E+00
  0.36622E+01  0.16164E+01  0.87772E+00
  0.36609E+01  0.16164E+01  0.88375E+00
  0.36622E+01  0.16164E+01  0.88375E+00
  0.36630E+01  0.16336E+01  0.88054E+00
  0.36630E+01  0.16336E+01  0.88656E+00
  0.36646E+01  0.16336E+01  0.88657E+00
  0.36630E+01  0.16284E+01  0.87604E+00
  0.36630E+01  0.16284E+01  0.88390E+00
  0.36646E+01  0.16284E+01  0.88390E+00
  0.36630E+01  0.16284E+01  0.88992E+00
  0.36646E+01  0.16284E+01  0.88992E+00
  0.36630E+01  0.16216E+01  0.87438E+00
  0.36630E+01  0.16216E+01  0.88041E+00
  0.36646E+01  0.16216E+01  0.88041E+00
  0.36630E+01  0.16216E+01  0.88827E+00
  0.36646E+01  0.16216E+01  0.88827E+00
  0.36630E+01  0.16216E+01  0.89430E+00
  0.36646E+01  0.16216E+01  0.89430E+00
  0.36630E+01  0.16164E+01  0.87772E+00
  0.36630E+01  0.16164E+01  0.88375E+00
  0.36646E+01  0.16164E+01  0.88376E+00
  0.36630E+01  0.16164E+01  0.89162E+00
  0.36646E+01  0.16164E+01  0.89162E+00
  0.36646E+01  0.16164E+01  0.89765E+00
  0.36630E+01  0.16336E+01  0.88976E+00
  0.36646E+01  0.16336E+01  0.88976E+00
  0.36630E+01  0.16336E+01  0.89573E+00
  0.36646E+01  0.16336E+01  0.89573E+00
  0.36630E+01  0.16284E+01  0.89311E+00
  0.36646E+01  0.16284E+01  0.89312E+00
  0.36646E+01  0.16284E+01  0.89909E+00
  0.36646E+01  0.16216E+01  0.89750E+00
  0.36646E+01  0.16216E+01  0.90347E+00
  0.36646E+01  0.16164E+01  0.90085E+00
  0.36622E+01  0.16336E+01  0.88976E+00
  0.36629E+01  0.16536E+01  0.89975E+00
  0.36630E+01  0.16736E+01  0.88684E+00
  0.36630E+01  0.16736E+01  0.89276E+00
  0.36629E+01  0.16736E+01  0.90047E+00
  0.36629E+01  0.16736E+01  0.90639E+00
  0.36630E+01  0.16684E+01  0.89021E+00
  0.36630E+01  0.16684E+01  0.89612E+00
  0.36629E+01  0.16684E+01  0.90384E+00
  0.36629E+01  0.16684E+01  0.90975E+00
  0.36630E+01  0.16616E+01  0.89459E+00
  0.36629E+01  0.16616E+01  0.90051E+00
  0.36630E+01  0.16564E+01  0.89796E+00
  0.36629E+01  0.16564E+01  0.90387E+00
  0.36592E+01  0.16736E+01  0.88684E+00
  0.36609E+01  0.16736E+01  0.88684E+00
  0.36622E+01  0.16736E+01  0.88684E+00
  0.36609E+01  0.16736E+01  0.89275E+00
  0.36622E+01  0.16736E+01  0.89276E+00
  0.36622E+01  0.16736E+01  0.90047E+00
  0.36592E+01  0.16684E+01  0.89020E+00
  0.36609E+01  0.16684E+01  0.89020E+00
  0.36622E+01  0.16684E+01  0.89020E+00
  0.36609E+01  0.16684E+01  0.89612E+00
  0.36622E+01  0.16684E+01  0.89612E+00
  0.36609E+01  0.16616E+01  0.89459E+00
  0.36622E+01  0.16616E+01  0.89459E+00
  0.36622E+01  0.16616E+01  0.90051E+00
  0.36622E+01  0.16564E+01  0.89796E+00
  0.36629E+01  0.16736E+01  0.90953E+00
  0.36608E+01  0.17136E+01  0.90624E+00
  0.36621E+01  0.17136E+01  0.90625E+00
  0.36621E+01  0.17136E+01  0.91209E+00
  0.36621E+01  0.17084E+01  0.90961E+00
  0.36621E+01  0.17084E+01  0.91546E+00
  0.36621E+01  0.17016E+01  0.91400E+00
  0.36609E+01  0.16936E+01  0.89661E+00
  0.36622E+01  0.16936E+01  0.89661E+00
  0.36609E+01  0.16936E+01  0.90249E+00
  0.36622E+01  0.16936E+01  0.90249E+00
  0.36621E+01  0.16936E+01  0.91016E+00
  0.36609E+01  0.16884E+01  0.89998E+00
  0.36622E+01  0.16884E+01  0.89998E+00
  0.36621E+01  0.16884E+01  0.90585E+00
  0.36622E+01  0.16816E+01  0.90437E+00
  0.36630E+01  0.16936E+01  0.89661E+00
  0.36629E+01  0.16936E+01  0.90249E+00
  0.36629E+01  0.16936E+01  0.91016E+00
  0.36629E+01  0.16884E+01  0.89998E+00
  0.36629E+01  0.16884E+01  0.90586E+00
  0.36629E+01  0.16816E+01  0.90437E+00
  0.36629E+01  0.16816E+01  0.91025E+00
  0.36629E+01  0.16764E+01  0.90774E+00
  0.36629E+01  0.17136E+01  0.90625E+00
  0.36629E+01  0.17136E+01  0.91209E+00
  0.36629E+01  0.17084E+01  0.90961E+00
  0.36684E+01  0.15536E+01  0.89449E+00
  0.36646E+01  0.15936E+01  0.89234E+00
  0.36646E+01  0.16136E+01  0.90264E+00
  0.36630E+01  0.16136E+01  0.87951E+00
  0.36646E+01  0.16136E+01  0.87951E+00
  0.36630E+01  0.16136E+01  0.88554E+00
  0.36646E+01  0.16136E+01  0.88554E+00
  0.36646E+01  0.16136E+01  0.89341E+00
  0.36646E+01  0.16136E+01  0.89944E+00
  0.36630E+01  0.16084E+01  0.88285E+00
  0.36646E+01  0.16084E+01  0.88285E+00
  0.36630E+01  0.16084E+01  0.88889E+00
  0.36646E+01  0.16084E+01  0.88889E+00
  0.36646E+01  0.16084E+01  0.89676E+00
  0.36630E+01  0.16016E+01  0.88721E+00
  0.36646E+01  0.16016E+01  0.88722E+00
  0.36646E+01  0.16016E+01  0.89326E+00
  0.36646E+01  0.15964E+01  0.89056E+00
  0.36609E+01  0.16136E+01  0.87950E+00
  0.36622E+01  0.16136E+01  0.87951E+00
  0.36622E+01  0.16136E+01  0.88554E+00
  0.36609E+01  0.16084E+01  0.88285E+00
  0.36622E+01  0.16084E+01  0.88285E+00
  0.36630E+01  0.16136E+01  0.87628E+00
  0.36630E+01  0.16084E+01  0.87353E+00
  0.36630E+01  0.16084E+01  0.87962E+00
  0.36646E+01  0.16084E+01  0.87962E+00
  0.36630E+01  0.16016E+01  0.86993E+00
  0.36630E+01  0.16016E+01  0.87788E+00
  0.36646E+01  0.16016E+01  0.87789E+00
  0.36630E+01  0.16016E+01  0.88398E+00
  0.36646E+01  0.16016E+01  0.88398E+00
  0.36630E+01  0.15964E+01  0.86716E+00
  0.36630E+01  0.15964E+01  0.87326E+00
  0.36647E+01  0.15964E+01  0.87326E+00
  0.36630E+01  0.15964E+01  0.88122E+00
  0.36646E+01  0.15964E+01  0.88122E+00
  0.36630E+01  0.15964E+01  0.88732E+00
  0.36646E+01  0.15964E+01  0.88733E+00
  0.36592E+01  0.16136E+01  0.87018E+00
  0.36609E+01  0.16136E+01  0.87019E+00
  0.36622E+01  0.16136E+01  0.87019E+00
  0.36592E+01  0.16136E+01  0.87627E+00
  0.36609E+01  0.16136E+01  0.87627E+00
  0.36622E+01  0.16136E+01  0.87628E+00
  0.36580E+01  0.16084E+01  0.86557E+00
  0.36593E+01  0.16084E+01  0.86558E+00
  0.36610E+01  0.16084E+01  0.86558E+00
  0.36592E+01  0.16084E+01  0.87352E+00
  0.36609E+01  0.16084E+01  0.87353E+00
  0.36622E+01  0.16084E+01  0.87353E+00
  0.36609E+01  0.16084E+01  0.87962E+00
  0.36622E+01  0.16084E+01  0.87962E+00
  0.36580E+01  0.16016E+01  0.86382E+00
  0.36593E+01  0.16016E+01  0.86383E+00
  0.36610E+01  0.16016E+01  0.86383E+00
  0.36592E+01  0.16016E+01  0.86992E+00
  0.36609E+01  0.16016E+01  0.86993E+00
  0.36622E+01  0.16016E+01  0.86993E+00
  0.36609E+01  0.16016E+01  0.87788E+00
  0.36622E+01  0.16016E+01  0.87788E+00
  0.36622E+01  0.16016E+01  0.88398E+00
  0.36579E+01  0.15964E+01  0.86715E+00
  0.36593E+01  0.15964E+01  0.86715E+00
  0.36610E+01  0.15964E+01  0.86716E+00
  0.36623E+01  0.15964E+01  0.86716E+00
  0.36592E+01  0.15964E+01  0.87326E+00
  0.36609E+01  0.15964E+01  0.87326E+00
  0.36622E+01  0.15964E+01  0.87326E+00
  0.36622E+01  0.15964E+01  0.88122E+00
  0.36630E+01  0.15884E+01  0.86899E+00
  0.36630E+01  0.15816E+01  0.86715E+00
  0.36630E+01  0.15816E+01  0.87333E+00
  0.36647E+01  0.15816E+01  0.87333E+00
  0.36631E+01  0.15764E+01  0.86241E+00
  0.36630E+01  0.15764E+01  0.87047E+00
  0.36647E+01  0.15764E+01  0.87048E+00
  0.36630E+01  0.15764E+01  0.87666E+00
  0.36646E+01  0.15764E+01  0.87666E+00
  0.36580E+01  0.15936E+01  0.85949E+00
  0.36593E+01  0.15936E+01  0.85950E+00
  0.36580E+01  0.15936E+01  0.86566E+00
  0.36593E+01  0.15936E+01  0.86566E+00
  0.36610E+01  0.15936E+01  0.86566E+00
  0.36623E+01  0.15936E+01  0.86566E+00
  0.36580E+01  0.15884E+01  0.86281E+00
  0.36593E+01  0.15884E+01  0.86282E+00
  0.36610E+01  0.15884E+01  0.86282E+00
  0.36592E+01  0.15884E+01  0.86899E+00
  0.36609E+01  0.15884E+01  0.86899E+00
  0.36623E+01  0.15884E+01  0.86899E+00
  0.36580E+01  0.15816E+01  0.85909E+00
  0.36593E+01  0.15816E+01  0.85909E+00
  0.36610E+01  0.15816E+01  0.85909E+00
  0.36593E+01  0.15816E+01  0.86715E+00
  0.36610E+01  0.15816E+01  0.86715E+00
  0.36623E+01  0.15816E+01  0.86715E+00
  0.36609E+01  0.15816E+01  0.87333E+00
  0.36622E+01  0.15816E+01  0.87333E+00
  0.36580E+01  0.15764E+01  0.85622E+00
  0.36593E+01  0.15764E+01  0.85622E+00
  0.36580E+01  0.15764E+01  0.86240E+00
  0.36593E+01  0.15764E+01  0.86240E+00
  0.36610E+01  0.15764E+01  0.86240E+00
  0.36623E+01  0.15764E+01  0.86241E+00
  0.36592E+01  0.15764E+01  0.87047E+00
  0.36609E+01  0.15764E+01  0.87047E+00
  0.36622E+01  0.15764E+01  0.87047E+00
  0.36622E+01  0.15764E+01  0.87665E+00
  0.36573E+01  0.15764E+01  0.85621E+00
  0.36592E+01  0.15936E+01  0.86893E+00
  0.36609E+01  0.15936E+01  0.86893E+00
  0.36623E+01  0.15936E+01  0.86893E+00
  0.36609E+01  0.15936E+01  0.87503E+00
  0.36622E+01  0.15936E+01  0.87504E+00
  0.36622E+01  0.15936E+01  0.88300E+00
  0.36592E+01  0.15884E+01  0.87226E+00
  0.36609E+01  0.15884E+01  0.87226E+00
  0.36622E+01  0.15884E+01  0.87226E+00
  0.36609E+01  0.15884E+01  0.87837E+00
  0.36622E+01  0.15884E+01  0.87837E+00
  0.36609E+01  0.15816E+01  0.87660E+00
  0.36622E+01  0.15816E+01  0.87660E+00
  0.36622E+01  0.15764E+01  0.87993E+00
  0.36630E+01  0.15936E+01  0.86893E+00
  0.36630E+01  0.15936E+01  0.87504E+00
  0.36647E+01  0.15936E+01  0.87504E+00
  0.36630E+01  0.15936E+01  0.88300E+00
  0.36646E+01  0.15936E+01  0.88300E+00
  0.36646E+01  0.15936E+01  0.88911E+00
  0.36630E+01  0.15884E+01  0.87226E+00
  0.36647E+01  0.15884E+01  0.87227E+00
  0.36630E+01  0.15884E+01  0.87837E+00
  0.36646E+01  0.15884E+01  0.87837E+00
  0.36646E+01  0.15884E+01  0.88634E+00
  0.36630E+01  0.15816E+01  0.87661E+00
  0.36646E+01  0.15816E+01  0.87661E+00
  0.36630E+01  0.15816E+01  0.88272E+00
  0.36646E+01  0.15816E+01  0.88272E+00
  0.36668E+01  0.15816E+01  0.88272E+00
  0.36667E+01  0.15816E+01  0.89070E+00
  0.36630E+01  0.15764E+01  0.87993E+00
  0.36646E+01  0.15764E+01  0.87994E+00
  0.36668E+01  0.15764E+01  0.87994E+00
  0.36646E+01  0.15764E+01  0.88605E+00
  0.36668E+01  0.15764E+01  0.88606E+00
  0.36667E+01  0.15764E+01  0.89404E+00
  0.36646E+01  0.15736E+01  0.88171E+00
  0.36668E+01  0.15736E+01  0.88171E+00
  0.36668E+01  0.15736E+01  0.88783E+00
  0.36667E+01  0.15736E+01  0.89582E+00
  0.36646E+01  0.15684E+01  0.88504E+00
  0.36668E+01  0.15684E+01  0.88504E+00
  0.36667E+01  0.15684E+01  0.89117E+00
  0.36667E+01  0.15616E+01  0.88938E+00
  0.36684E+01  0.15564E+01  0.89271E+00
  0.36630E+01  0.15736E+01  0.86417E+00
  0.36630E+01  0.15736E+01  0.87224E+00
  0.36647E+01  0.15736E+01  0.87225E+00
  0.36630E+01  0.15736E+01  0.87843E+00
  0.36646E+01  0.15736E+01  0.87843E+00
  0.36668E+01  0.15736E+01  0.87843E+00
  0.36631E+01  0.15684E+01  0.86129E+00
  0.36630E+01  0.15684E+01  0.86748E+00
  0.36647E+01  0.15684E+01  0.86749E+00
  0.36630E+01  0.15684E+01  0.87556E+00
  0.36647E+01  0.15684E+01  0.87557E+00
  0.36668E+01  0.15684E+01  0.87557E+00
  0.36646E+01  0.15684E+01  0.88176E+00
  0.36668E+01  0.15684E+01  0.88176E+00
  0.36630E+01  0.15616E+01  0.86561E+00
  0.36647E+01  0.15616E+01  0.86561E+00
  0.36630E+01  0.15616E+01  0.87181E+00
  0.36647E+01  0.15616E+01  0.87181E+00
  0.36668E+01  0.15616E+01  0.87181E+00
  0.36646E+01  0.15616E+01  0.87990E+00
  0.36668E+01  0.15616E+01  0.87990E+00
  0.36668E+01  0.15616E+01  0.88610E+00
  0.36630E+01  0.15564E+01  0.86892E+00
  0.36647E+01  0.15564E+01  0.86892E+00
  0.36668E+01  0.15564E+01  0.86892E+00
  0.36630E+01  0.15564E+01  0.87512E+00
  0.36647E+01  0.15564E+01  0.87512E+00
  0.36668E+01  0.15564E+01  0.87513E+00
  0.36668E+01  0.15564E+01  0.88322E+00