TITLE = "../MESH/Convergence_0000000000.hmesh"
VARIABLES = "x","y","z"
ZONE I=5, J=5, K=1, F=POINT
  0.20000E+00  0.10000E+01  0.00000E+00
  0.16547E+00  0.10000E+01  0.00000E+00
  0.10000E+00  0.10000E+01  0.00000E+00
  0.34535E-01  0.10000E+01  0.00000E+00
  0.00000E+00  0.10000E+01  0.00000E+00
  0.20000E+00  0.10000E+01  0.34535E-01
  0.16547E+00  0.10000E+01  0.34535E-01
  0.10000E+00  0.10000E+01  0.34535E-01
  0.34535E-01  0.10000E+01  0.34535E-01
  0.00000E+00  0.10000E+01  0.34535E-01
  0.20000E+00  0.10000E+01  0.10000E+00
  0.16547E+00  0.10000E+01  0.10000E+00
  0.10000E+00  0.10000E+01  0.10000E+00
  0.34535E-01  0.10000E+01  0.10000E+00
  0.00000E+00  0.10000E+01  0.10000E+00
  0.20000E+00  0.10000E+01  0.16547E+00
  0.16547E+00  0.10000E+01  0.16547E+00
  0.10000E+00  0.10000E+01  0.16547E+00
  0.34535E-01  0.10000E+01  0.16547E+00
  0.00000E+00  0.10000E+01  0.16547E+00
  0.20000E+00  0.10000E+01  0.20000E+00
  0.16547E+00  0.10000E+01  0.20000E+00
  0.10000E+00  0.10000E+01  0.20000E+00
  0.34535E-01  0.10000E+01  0.20000E+00
  0.00000E+00  0.10000E+01  0.20000E+00
ZONE I=5, J=5, K=1, F=POINT
  0.40000E+00  0.10000E+01  0.00000E+00
  0.36547E+00  0.10000E+01  0.00000E+00
  0.30000E+00  0.10000E+01  0.00000E+00
  0.23453E+00  0.10000E+01  0.00000E+00
  0.20000E+00  0.10000E+01  0.00000E+00
  0.40000E+00  0.10000E+01  0.34535E-01
  0.36547E+00  0.10000E+01  0.34535E-01
  0.30000E+00  0.10000E+01  0.34535E-01
  0.23453E+00  0.10000E+01  0.34535E-01
  0.20000E+00  0.10000E+01  0.34535E-01
  0.40000E+00  0.10000E+01  0.10000E+00
  0.36547E+00  0.10000E+01  0.10000E+00
  0.30000E+00  0.10000E+01  0.10000E+00
  0.23453E+00  0.10000E+01  0.10000E+00
  0.20000E+00  0.10000E+01  0.10000E+00
  0.40000E+00  0.10000E+01  0.16547E+00
  0.36547E+00  0.10000E+01  0.16547E+00
  0.30000E+00  0.10000E+01  0.16547E+00
  0.23453E+00  0.10000E+01  0.16547E+00
  0.20000E+00  0.10000E+01  0.16547E+00
  0.40000E+00  0.10000E+01  0.20000E+00
  0.36547E+00  0.10000E+01  0.20000E+00
  0.30000E+00  0.10000E+01  0.20000E+00
  0.23453E+00  0.10000E+01  0.20000E+00
  0.20000E+00  0.10000E+01  0.20000E+00
ZONE I=5, J=5, K=1, F=POINT
  0.60000E+00  0.10000E+01  0.00000E+00
  0.56547E+00  0.10000E+01  0.00000E+00
  0.50000E+00  0.10000E+01  0.00000E+00
  0.43453E+00  0.10000E+01  0.00000E+00
  0.40000E+00  0.10000E+01  0.00000E+00
  0.60000E+00  0.10000E+01  0.34535E-01
  0.56547E+00  0.10000E+01  0.34535E-01
  0.50000E+00  0.10000E+01  0.34535E-01
  0.43453E+00  0.10000E+01  0.34535E-01
  0.40000E+00  0.10000E+01  0.34535E-01
  0.60000E+00  0.10000E+01  0.10000E+00
  0.56547E+00  0.10000E+01  0.10000E+00
  0.50000E+00  0.10000E+01  0.10000E+00
  0.43453E+00  0.10000E+01  0.10000E+00
  0.40000E+00  0.10000E+01  0.10000E+00
  0.60000E+00  0.10000E+01  0.16547E+00
  0.56547E+00  0.10000E+01  0.16547E+00
  0.50000E+00  0.10000E+01  0.16547E+00
  0.43453E+00  0.10000E+01  0.16547E+00
  0.40000E+00  0.10000E+01  0.16547E+00
  0.60000E+00  0.10000E+01  0.20000E+00
  0.56547E+00  0.10000E+01  0.20000E+00
  0.50000E+00  0.10000E+01  0.20000E+00
  0.43453E+00  0.10000E+01  0.20000E+00
  0.40000E+00  0.10000E+01  0.20000E+00
ZONE I=5, J=5, K=1, F=POINT
  0.80000E+00  0.10000E+01  0.00000E+00
  0.76547E+00  0.10000E+01  0.00000E+00
  0.70000E+00  0.10000E+01  0.00000E+00
  0.63453E+00  0.10000E+01  0.00000E+00
  0.60000E+00  0.10000E+01  0.00000E+00
  0.80000E+00  0.10000E+01  0.34535E-01
  0.76547E+00  0.10000E+01  0.34535E-01
  0.70000E+00  0.10000E+01  0.34535E-01
  0.63453E+00  0.10000E+01  0.34535E-01
  0.60000E+00  0.10000E+01  0.34535E-01
  0.80000E+00  0.10000E+01  0.10000E+00
  0.76547E+00  0.10000E+01  0.10000E+00
  0.70000E+00  0.10000E+01  0.10000E+00
  0.63453E+00  0.10000E+01  0.10000E+00
  0.60000E+00  0.10000E+01  0.10000E+00
  0.80000E+00  0.10000E+01  0.16547E+00
  0.76547E+00  0.10000E+01  0.16547E+00
  0.70000E+00  0.10000E+01  0.16547E+00
  0.63453E+00  0.10000E+01  0.16547E+00
  0.60000E+00  0.10000E+01  0.16547E+00
  0.80000E+00  0.10000E+01  0.20000E+00
  0.76547E+00  0.10000E+01  0.20000E+00
  0.70000E+00  0.10000E+01  0.20000E+00
  0.63453E+00  0.10000E+01  0.20000E+00
  0.60000E+00  0.10000E+01  0.20000E+00
ZONE I=5, J=5, K=1, F=POINT
  0.10000E+01  0.10000E+01  0.00000E+00
  0.96547E+00  0.10000E+01  0.00000E+00
  0.90000E+00  0.10000E+01  0.00000E+00
  0.83453E+00  0.10000E+01  0.00000E+00
  0.80000E+00  0.10000E+01  0.00000E+00
  0.10000E+01  0.10000E+01  0.34535E-01
  0.96547E+00  0.10000E+01  0.34535E-01
  0.90000E+00  0.10000E+01  0.34535E-01
  0.83453E+00  0.10000E+01  0.34535E-01
  0.80000E+00  0.10000E+01  0.34535E-01
  0.10000E+01  0.10000E+01  0.10000E+00
  0.96547E+00  0.10000E+01  0.10000E+00
  0.90000E+00  0.10000E+01  0.10000E+00
  0.83453E+00  0.10000E+01  0.10000E+00
  0.80000E+00  0.10000E+01  0.10000E+00
  0.10000E+01  0.10000E+01  0.16547E+00
  0.96547E+00  0.10000E+01  0.16547E+00
  0.90000E+00  0.10000E+01  0.16547E+00
  0.83453E+00  0.10000E+01  0.16547E+00
  0.80000E+00  0.10000E+01  0.16547E+00
  0.10000E+01  0.10000E+01  0.20000E+00
  0.96547E+00  0.10000E+01  0.20000E+00
  0.90000E+00  0.10000E+01  0.20000E+00
  0.83453E+00  0.10000E+01  0.20000E+00
  0.80000E+00  0.10000E+01  0.20000E+00
ZONE I=5, J=5, K=1, F=POINT
  0.12000E+01  0.10000E+01  0.00000E+00
  0.11655E+01  0.10000E+01  0.00000E+00
  0.11000E+01  0.10000E+01  0.00000E+00
  0.10345E+01  0.10000E+01  0.00000E+00
  0.10000E+01  0.10000E+01  0.00000E+00
  0.12000E+01  0.10000E+01  0.34535E-01
  0.11655E+01  0.10000E+01  0.34535E-01
  0.11000E+01  0.10000E+01  0.34535E-01
  0.10345E+01  0.10000E+01  0.34535E-01
  0.10000E+01  0.10000E+01  0.34535E-01
  0.12000E+01  0.10000E+01  0.10000E+00
  0.11655E+01  0.10000E+01  0.10000E+00
  0.11000E+01  0.10000E+01  0.10000E+00
  0.10345E+01  0.10000E+01  0.10000E+00
  0.10000E+01  0.10000E+01  0.10000E+00
  0.12000E+01  0.10000E+01  0.16547E+00
  0.11655E+01  0.10000E+01  0.16547E+00
  0.11000E+01  0.10000E+01  0.16547E+00
  0.10345E+01  0.10000E+01  0.16547E+00
  0.10000E+01  0.10000E+01  0.16547E+00
  0.12000E+01  0.10000E+01  0.20000E+00
  0.11655E+01  0.10000E+01  0.20000E+00
  0.11000E+01  0.10000E+01  0.20000E+00
  0.10345E+01  0.10000E+01  0.20000E+00
  0.10000E+01  0.10000E+01  0.20000E+00
ZONE I=5, J=5, K=1, F=POINT
  0.14000E+01  0.10000E+01  0.00000E+00
  0.13655E+01  0.10000E+01  0.00000E+00
  0.13000E+01  0.10000E+01  0.00000E+00
  0.12345E+01  0.10000E+01  0.00000E+00
  0.12000E+01  0.10000E+01  0.00000E+00
  0.14000E+01  0.10000E+01  0.34535E-01
  0.13655E+01  0.10000E+01  0.34535E-01
  0.13000E+01  0.10000E+01  0.34535E-01
  0.12345E+01  0.10000E+01  0.34535E-01
  0.12000E+01  0.10000E+01  0.34535E-01
  0.14000E+01  0.10000E+01  0.10000E+00
  0.13655E+01  0.10000E+01  0.10000E+00
  0.13000E+01  0.10000E+01  0.10000E+00
  0.12345E+01  0.10000E+01  0.10000E+00
  0.12000E+01  0.10000E+01  0.10000E+00
  0.14000E+01  0.10000E+01  0.16547E+00
  0.13655E+01  0.10000E+01  0.16547E+00
  0.13000E+01  0.10000E+01  0.16547E+00
  0.12345E+01  0.10000E+01  0.16547E+00
  0.12000E+01  0.10000E+01  0.16547E+00
  0.14000E+01  0.10000E+01  0.20000E+00
  0.13655E+01  0.10000E+01  0.20000E+00
  0.13000E+01  0.10000E+01  0.20000E+00
  0.12345E+01  0.10000E+01  0.20000E+00
  0.12000E+01  0.10000E+01  0.20000E+00
ZONE I=5, J=5, K=1, F=POINT
  0.16000E+01  0.10000E+01  0.00000E+00
  0.15655E+01  0.10000E+01  0.00000E+00
  0.15000E+01  0.10000E+01  0.00000E+00
  0.14345E+01  0.10000E+01  0.00000E+00
  0.14000E+01  0.10000E+01  0.00000E+00
  0.16000E+01  0.10000E+01  0.34535E-01
  0.15655E+01  0.10000E+01  0.34535E-01
  0.15000E+01  0.10000E+01  0.34535E-01
  0.14345E+01  0.10000E+01  0.34535E-01
  0.14000E+01  0.10000E+01  0.34535E-01
  0.16000E+01  0.10000E+01  0.10000E+00
  0.15655E+01  0.10000E+01  0.10000E+00
  0.15000E+01  0.10000E+01  0.10000E+00
  0.14345E+01  0.10000E+01  0.10000E+00
  0.14000E+01  0.10000E+01  0.10000E+00
  0.16000E+01  0.10000E+01  0.16547E+00
  0.15655E+01  0.10000E+01  0.16547E+00
  0.15000E+01  0.10000E+01  0.16547E+00
  0.14345E+01  0.10000E+01  0.16547E+00
  0.14000E+01  0.10000E+01  0.16547E+00
  0.16000E+01  0.10000E+01  0.20000E+00
  0.15655E+01  0.10000E+01  0.20000E+00
  0.15000E+01  0.10000E+01  0.20000E+00
  0.14345E+01  0.10000E+01  0.20000E+00
  0.14000E+01  0.10000E+01  0.20000E+00
ZONE I=5, J=5, K=1, F=POINT
  0.18000E+01  0.10000E+01  0.00000E+00
  0.17655E+01  0.10000E+01  0.00000E+00
  0.17000E+01  0.10000E+01  0.00000E+00
  0.16345E+01  0.10000E+01  0.00000E+00
  0.16000E+01  0.10000E+01  0.00000E+00
  0.18000E+01  0.10000E+01  0.34535E-01
  0.17655E+01  0.10000E+01  0.34535E-01
  0.17000E+01  0.10000E+01  0.34535E-01
  0.16345E+01  0.10000E+01  0.34535E-01
  0.16000E+01  0.10000E+01  0.34535E-01
  0.18000E+01  0.10000E+01  0.10000E+00
  0.17655E+01  0.10000E+01  0.10000E+00
  0.17000E+01  0.10000E+01  0.10000E+00
  0.16345E+01  0.10000E+01  0.10000E+00
  0.16000E+01  0.10000E+01  0.10000E+00
  0.18000E+01  0.10000E+01  0.16547E+00
  0.17655E+01  0.10000E+01  0.16547E+00
  0.17000E+01  0.10000E+01  0.16547E+00
  0.16345E+01  0.10000E+01  0.16547E+00
  0.16000E+01  0.10000E+01  0.16547E+00
  0.18000E+01  0.10000E+01  0.20000E+00
  0.17655E+01  0.10000E+01  0.20000E+00
  0.17000E+01  0.10000E+01  0.20000E+00
  0.16345E+01  0.10000E+01  0.20000E+00
  0.16000E+01  0.10000E+01  0.20000E+00
ZONE I=5, J=5, K=1, F=POINT
  0.20000E+01  0.10000E+01  0.00000E+00
  0.19655E+01  0.10000E+01  0.00000E+00
  0.19000E+01  0.10000E+01  0.00000E+00
  0.18345E+01  0.10000E+01  0.00000E+00
  0.18000E+01  0.10000E+01  0.00000E+00
  0.20000E+01  0.10000E+01  0.34535E-01
  0.19655E+01  0.10000E+01  0.34535E-01
  0.19000E+01  0.10000E+01  0.34535E-01
  0.18345E+01  0.10000E+01  0.34535E-01
  0.18000E+01  0.10000E+01  0.34535E-01
  0.20000E+01  0.10000E+01  0.10000E+00
  0.19655E+01  0.10000E+01  0.10000E+00
  0.19000E+01  0.10000E+01  0.10000E+00
  0.18345E+01  0.10000E+01  0.10000E+00
  0.18000E+01  0.10000E+01  0.10000E+00
  0.20000E+01  0.10000E+01  0.16547E+00
  0.19655E+01  0.10000E+01  0.16547E+00
  0.19000E+01  0.10000E+01  0.16547E+00
  0.18345E+01  0.10000E+01  0.16547E+00
  0.18000E+01  0.10000E+01  0.16547E+00
  0.20000E+01  0.10000E+01  0.20000E+00
  0.19655E+01  0.10000E+01  0.20000E+00
  0.19000E+01  0.10000E+01  0.20000E+00
  0.18345E+01  0.10000E+01  0.20000E+00
  0.18000E+01  0.10000E+01  0.20000E+00
ZONE I=5, J=5, K=1, F=POINT
  0.20000E+00  0.10000E+01  0.20000E+00
  0.16547E+00  0.10000E+01  0.20000E+00
  0.10000E+00  0.10000E+01  0.20000E+00
  0.34535E-01  0.10000E+01  0.20000E+00
  0.00000E+00  0.10000E+01  0.20000E+00
  0.20000E+00  0.10000E+01  0.23453E+00
  0.16547E+00  0.10000E+01  0.23453E+00
  0.10000E+00  0.10000E+01  0.23453E+00
  0.34535E-01  0.10000E+01  0.23453E+00
  0.00000E+00  0.10000E+01  0.23453E+00
  0.20000E+00  0.10000E+01  0.30000E+00
  0.16547E+00  0.10000E+01  0.30000E+00
  0.10000E+00  0.10000E+01  0.30000E+00
  0.34535E-01  0.10000E+01  0.30000E+00
  0.00000E+00  0.10000E+01  0.30000E+00
  0.20000E+00  0.10000E+01  0.36547E+00
  0.16547E+00  0.10000E+01  0.36547E+00
  0.10000E+00  0.10000E+01  0.36547E+00
  0.34535E-01  0.10000E+01  0.36547E+00
  0.00000E+00  0.10000E+01  0.36547E+00
  0.20000E+00  0.10000E+01  0.40000E+00
  0.16547E+00  0.10000E+01  0.40000E+00
  0.10000E+00  0.10000E+01  0.40000E+00
  0.34535E-01  0.10000E+01  0.40000E+00
  0.00000E+00  0.10000E+01  0.40000E+00
ZONE I=5, J=5, K=1, F=POINT
  0.40000E+00  0.10000E+01  0.20000E+00
  0.36547E+00  0.10000E+01  0.20000E+00
  0.30000E+00  0.10000E+01  0.20000E+00
  0.23453E+00  0.10000E+01  0.20000E+00
  0.20000E+00  0.10000E+01  0.20000E+00
  0.40000E+00  0.10000E+01  0.23453E+00
  0.36547E+00  0.10000E+01  0.23453E+00
  0.30000E+00  0.10000E+01  0.23453E+00
  0.23453E+00  0.10000E+01  0.23453E+00
  0.20000E+00  0.10000E+01  0.23453E+00
  0.40000E+00  0.10000E+01  0.30000E+00
  0.36547E+00  0.10000E+01  0.30000E+00
  0.30000E+00  0.10000E+01  0.30000E+00
  0.23453E+00  0.10000E+01  0.30000E+00
  0.20000E+00  0.10000E+01  0.30000E+00
  0.40000E+00  0.10000E+01  0.36547E+00
  0.36547E+00  0.10000E+01  0.36547E+00
  0.30000E+00  0.10000E+01  0.36547E+00
  0.23453E+00  0.10000E+01  0.36547E+00
  0.20000E+00  0.10000E+01  0.36547E+00
  0.40000E+00  0.10000E+01  0.40000E+00
  0.36547E+00  0.10000E+01  0.40000E+00
  0.30000E+00  0.10000E+01  0.40000E+00
  0.23453E+00  0.10000E+01  0.40000E+00
  0.20000E+00  0.10000E+01  0.40000E+00
ZONE I=5, J=5, K=1, F=POINT
  0.60000E+00  0.10000E+01  0.20000E+00
  0.56547E+00  0.10000E+01  0.20000E+00
  0.50000E+00  0.10000E+01  0.20000E+00
  0.43453E+00  0.10000E+01  0.20000E+00
  0.40000E+00  0.10000E+01  0.20000E+00
  0.60000E+00  0.10000E+01  0.23453E+00
  0.56547E+00  0.10000E+01  0.23453E+00
  0.50000E+00  0.10000E+01  0.23453E+00
  0.43453E+00  0.10000E+01  0.23453E+00
  0.40000E+00  0.10000E+01  0.23453E+00
  0.60000E+00  0.10000E+01  0.30000E+00
  0.56547E+00  0.10000E+01  0.30000E+00
  0.50000E+00  0.10000E+01  0.30000E+00
  0.43453E+00  0.10000E+01  0.30000E+00
  0.40000E+00  0.10000E+01  0.30000E+00
  0.60000E+00  0.10000E+01  0.36547E+00
  0.56547E+00  0.10000E+01  0.36547E+00
  0.50000E+00  0.10000E+01  0.36547E+00
  0.43453E+00  0.10000E+01  0.36547E+00
  0.40000E+00  0.10000E+01  0.36547E+00
  0.60000E+00  0.10000E+01  0.40000E+00
  0.56547E+00  0.10000E+01  0.40000E+00
  0.50000E+00  0.10000E+01  0.40000E+00
  0.43453E+00  0.10000E+01  0.40000E+00
  0.40000E+00  0.10000E+01  0.40000E+00
ZONE I=5, J=5, K=1, F=POINT
  0.80000E+00  0.10000E+01  0.20000E+00
  0.76547E+00  0.10000E+01  0.20000E+00
  0.70000E+00  0.10000E+01  0.20000E+00
  0.63453E+00  0.10000E+01  0.20000E+00
  0.60000E+00  0.10000E+01  0.20000E+00
  0.80000E+00  0.10000E+01  0.23453E+00
  0.76547E+00  0.10000E+01  0.23453E+00
  0.70000E+00  0.10000E+01  0.23453E+00
  0.63453E+00  0.10000E+01  0.23453E+00
  0.60000E+00  0.10000E+01  0.23453E+00
  0.80000E+00  0.10000E+01  0.30000E+00
  0.76547E+00  0.10000E+01  0.30000E+00
  0.70000E+00  0.10000E+01  0.30000E+00
  0.63453E+00  0.10000E+01  0.30000E+00
  0.60000E+00  0.10000E+01  0.30000E+00
  0.80000E+00  0.10000E+01  0.36547E+00
  0.76547E+00  0.10000E+01  0.36547E+00
  0.70000E+00  0.10000E+01  0.36547E+00
  0.63453E+00  0.10000E+01  0.36547E+00
  0.60000E+00  0.10000E+01  0.36547E+00
  0.80000E+00  0.10000E+01  0.40000E+00
  0.76547E+00  0.10000E+01  0.40000E+00
  0.70000E+00  0.10000E+01  0.40000E+00
  0.63453E+00  0.10000E+01  0.40000E+00
  0.60000E+00  0.10000E+01  0.40000E+00
ZONE I=5, J=5, K=1, F=POINT
  0.10000E+01  0.10000E+01  0.20000E+00
  0.96547E+00  0.10000E+01  0.20000E+00
  0.90000E+00  0.10000E+01  0.20000E+00
  0.83453E+00  0.10000E+01  0.20000E+00
  0.80000E+00  0.10000E+01  0.20000E+00
  0.10000E+01  0.10000E+01  0.23453E+00
  0.96547E+00  0.10000E+01  0.23453E+00
  0.90000E+00  0.10000E+01  0.23453E+00
  0.83453E+00  0.10000E+01  0.23453E+00
  0.80000E+00  0.10000E+01  0.23453E+00
  0.10000E+01  0.10000E+01  0.30000E+00
  0.96547E+00  0.10000E+01  0.30000E+00
  0.90000E+00  0.10000E+01  0.30000E+00
  0.83453E+00  0.10000E+01  0.30000E+00
  0.80000E+00  0.10000E+01  0.30000E+00
  0.10000E+01  0.10000E+01  0.36547E+00
  0.96547E+00  0.10000E+01  0.36547E+00
  0.90000E+00  0.10000E+01  0.36547E+00
  0.83453E+00  0.10000E+01  0.36547E+00
  0.80000E+00  0.10000E+01  0.36547E+00
  0.10000E+01  0.10000E+01  0.40000E+00
  0.96547E+00  0.10000E+01  0.40000E+00
  0.90000E+00  0.10000E+01  0.40000E+00
  0.83453E+00  0.10000E+01  0.40000E+00
  0.80000E+00  0.10000E+01  0.40000E+00
ZONE I=5, J=5, K=1, F=POINT
  0.12000E+01  0.10000E+01  0.20000E+00
  0.11655E+01  0.10000E+01  0.20000E+00
  0.11000E+01  0.10000E+01  0.20000E+00
  0.10345E+01  0.10000E+01  0.20000E+00
  0.10000E+01  0.10000E+01  0.20000E+00
  0.12000E+01  0.10000E+01  0.23453E+00
  0.11655E+01  0.10000E+01  0.23453E+00
  0.11000E+01  0.10000E+01  0.23453E+00
  0.10345E+01  0.10000E+01  0.23453E+00
  0.10000E+01  0.10000E+01  0.23453E+00
  0.12000E+01  0.10000E+01  0.30000E+00
  0.11655E+01  0.10000E+01  0.30000E+00
  0.11000E+01  0.10000E+01  0.30000E+00
  0.10345E+01  0.10000E+01  0.30000E+00
  0.10000E+01  0.10000E+01  0.30000E+00
  0.12000E+01  0.10000E+01  0.36547E+00
  0.11655E+01  0.10000E+01  0.36547E+00
  0.11000E+01  0.10000E+01  0.36547E+00
  0.10345E+01  0.10000E+01  0.36547E+00
  0.10000E+01  0.10000E+01  0.36547E+00
  0.12000E+01  0.10000E+01  0.40000E+00
  0.11655E+01  0.10000E+01  0.40000E+00
  0.11000E+01  0.10000E+01  0.40000E+00
  0.10345E+01  0.10000E+01  0.40000E+00
  0.10000E+01  0.10000E+01  0.40000E+00
ZONE I=5, J=5, K=1, F=POINT
  0.14000E+01  0.10000E+01  0.20000E+00
  0.13655E+01  0.10000E+01  0.20000E+00
  0.13000E+01  0.10000E+01  0.20000E+00
  0.12345E+01  0.10000E+01  0.20000E+00
  0.12000E+01  0.10000E+01  0.20000E+00
  0.14000E+01  0.10000E+01  0.23453E+00
  0.13655E+01  0.10000E+01  0.23453E+00
  0.13000E+01  0.10000E+01  0.23453E+00
  0.12345E+01  0.10000E+01  0.23453E+00
  0.12000E+01  0.10000E+01  0.23453E+00
  0.14000E+01  0.10000E+01  0.30000E+00
  0.13655E+01  0.10000E+01  0.30000E+00
  0.13000E+01  0.10000E+01  0.30000E+00
  0.12345E+01  0.10000E+01  0.30000E+00
  0.12000E+01  0.10000E+01  0.30000E+00
  0.14000E+01  0.10000E+01  0.36547E+00
  0.13655E+01  0.10000E+01  0.36547E+00
  0.13000E+01  0.10000E+01  0.36547E+00
  0.12345E+01  0.10000E+01  0.36547E+00
  0.12000E+01  0.10000E+01  0.36547E+00
  0.14000E+01  0.10000E+01  0.40000E+00
  0.13655E+01  0.10000E+01  0.40000E+00
  0.13000E+01  0.10000E+01  0.40000E+00
  0.12345E+01  0.10000E+01  0.40000E+00
  0.12000E+01  0.10000E+01  0.40000E+00
ZONE I=5, J=5, K=1, F=POINT
  0.16000E+01  0.10000E+01  0.20000E+00
  0.15655E+01  0.10000E+01  0.20000E+00
  0.15000E+01  0.10000E+01  0.20000E+00
  0.14345E+01  0.10000E+01  0.20000E+00
  0.14000E+01  0.10000E+01  0.20000E+00
  0.16000E+01  0.10000E+01  0.23453E+00
  0.15655E+01  0.10000E+01  0.23453E+00
  0.15000E+01  0.10000E+01  0.23453E+00
  0.14345E+01  0.10000E+01  0.23453E+00
  0.14000E+01  0.10000E+01  0.23453E+00
  0.16000E+01  0.10000E+01  0.30000E+00
  0.15655E+01  0.10000E+01  0.30000E+00
  0.15000E+01  0.10000E+01  0.30000E+00
  0.14345E+01  0.10000E+01  0.30000E+00
  0.14000E+01  0.10000E+01  0.30000E+00
  0.16000E+01  0.10000E+01  0.36547E+00
  0.15655E+01  0.10000E+01  0.36547E+00
  0.15000E+01  0.10000E+01  0.36547E+00
  0.14345E+01  0.10000E+01  0.36547E+00
  0.14000E+01  0.10000E+01  0.36547E+00
  0.16000E+01  0.10000E+01  0.40000E+00
  0.15655E+01  0.10000E+01  0.40000E+00
  0.15000E+01  0.10000E+01  0.40000E+00
  0.14345E+01  0.10000E+01  0.40000E+00
  0.14000E+01  0.10000E+01  0.40000E+00
ZONE I=5, J=5, K=1, F=POINT
  0.18000E+01  0.10000E+01  0.20000E+00
  0.17655E+01  0.10000E+01  0.20000E+00
  0.17000E+01  0.10000E+01  0.20000E+00
  0.16345E+01  0.10000E+01  0.20000E+00
  0.16000E+01  0.10000E+01  0.20000E+00
  0.18000E+01  0.10000E+01  0.23453E+00
  0.17655E+01  0.10000E+01  0.23453E+00
  0.17000E+01  0.10000E+01  0.23453E+00
  0.16345E+01  0.10000E+01  0.23453E+00
  0.16000E+01  0.10000E+01  0.23453E+00
  0.18000E+01  0.10000E+01  0.30000E+00
  0.17655E+01  0.10000E+01  0.30000E+00
  0.17000E+01  0.10000E+01  0.30000E+00
  0.16345E+01  0.10000E+01  0.30000E+00
  0.16000E+01  0.10000E+01  0.30000E+00
  0.18000E+01  0.10000E+01  0.36547E+00
  0.17655E+01  0.10000E+01  0.36547E+00
  0.17000E+01  0.10000E+01  0.36547E+00
  0.16345E+01  0.10000E+01  0.36547E+00
  0.16000E+01  0.10000E+01  0.36547E+00
  0.18000E+01  0.10000E+01  0.40000E+00
  0.17655E+01  0.10000E+01  0.40000E+00
  0.17000E+01  0.10000E+01  0.40000E+00
  0.16345E+01  0.10000E+01  0.40000E+00
  0.16000E+01  0.10000E+01  0.40000E+00
ZONE I=5, J=5, K=1, F=POINT
  0.20000E+01  0.10000E+01  0.20000E+00
  0.19655E+01  0.10000E+01  0.20000E+00
  0.19000E+01  0.10000E+01  0.20000E+00
  0.18345E+01  0.10000E+01  0.20000E+00
  0.18000E+01  0.10000E+01  0.20000E+00
  0.20000E+01  0.10000E+01  0.23453E+00
  0.19655E+01  0.10000E+01  0.23453E+00
  0.19000E+01  0.10000E+01  0.23453E+00
  0.18345E+01  0.10000E+01  0.23453E+00
  0.18000E+01  0.10000E+01  0.23453E+00
  0.20000E+01  0.10000E+01  0.30000E+00
  0.19655E+01  0.10000E+01  0.30000E+00
  0.19000E+01  0.10000E+01  0.30000E+00
  0.18345E+01  0.10000E+01  0.30000E+00
  0.18000E+01  0.10000E+01  0.30000E+00
  0.20000E+01  0.10000E+01  0.36547E+00
  0.19655E+01  0.10000E+01  0.36547E+00
  0.19000E+01  0.10000E+01  0.36547E+00
  0.18345E+01  0.10000E+01  0.36547E+00
  0.18000E+01  0.10000E+01  0.36547E+00
  0.20000E+01  0.10000E+01  0.40000E+00
  0.19655E+01  0.10000E+01  0.40000E+00
  0.19000E+01  0.10000E+01  0.40000E+00
  0.18345E+01  0.10000E+01  0.40000E+00
  0.18000E+01  0.10000E+01  0.40000E+00
ZONE I=5, J=5, K=1, F=POINT
  0.20000E+00  0.10000E+01  0.40000E+00
  0.16547E+00  0.10000E+01  0.40000E+00
  0.10000E+00  0.10000E+01  0.40000E+00
  0.34535E-01  0.10000E+01  0.40000E+00
  0.00000E+00  0.10000E+01  0.40000E+00
  0.20000E+00  0.10000E+01  0.43453E+00
  0.16547E+00  0.10000E+01  0.43453E+00
  0.10000E+00  0.10000E+01  0.43453E+00
  0.34535E-01  0.10000E+01  0.43453E+00
  0.00000E+00  0.10000E+01  0.43453E+00
  0.20000E+00  0.10000E+01  0.50000E+00
  0.16547E+00  0.10000E+01  0.50000E+00
  0.10000E+00  0.10000E+01  0.50000E+00
  0.34535E-01  0.10000E+01  0.50000E+00
  0.00000E+00  0.10000E+01  0.50000E+00
  0.20000E+00  0.10000E+01  0.56547E+00
  0.16547E+00  0.10000E+01  0.56547E+00
  0.10000E+00  0.10000E+01  0.56547E+00
  0.34535E-01  0.10000E+01  0.56547E+00
  0.00000E+00  0.10000E+01  0.56547E+00
  0.20000E+00  0.10000E+01  0.60000E+00
  0.16547E+00  0.10000E+01  0.60000E+00
  0.10000E+00  0.10000E+01  0.60000E+00
  0.34535E-01  0.10000E+01  0.60000E+00
  0.00000E+00  0.10000E+01  0.60000E+00
ZONE I=5, J=5, K=1, F=POINT
  0.40000E+00  0.10000E+01  0.40000E+00
  0.36547E+00  0.10000E+01  0.40000E+00
  0.30000E+00  0.10000E+01  0.40000E+00
  0.23453E+00  0.10000E+01  0.40000E+00
  0.20000E+00  0.10000E+01  0.40000E+00
  0.40000E+00  0.10000E+01  0.43453E+00
  0.36547E+00  0.10000E+01  0.43453E+00
  0.30000E+00  0.10000E+01  0.43453E+00
  0.23453E+00  0.10000E+01  0.43453E+00
  0.20000E+00  0.10000E+01  0.43453E+00
  0.40000E+00  0.10000E+01  0.50000E+00
  0.36547E+00  0.10000E+01  0.50000E+00
  0.30000E+00  0.10000E+01  0.50000E+00
  0.23453E+00  0.10000E+01  0.50000E+00
  0.20000E+00  0.10000E+01  0.50000E+00
  0.40000E+00  0.10000E+01  0.56547E+00
  0.36547E+00  0.10000E+01  0.56547E+00
  0.30000E+00  0.10000E+01  0.56547E+00
  0.23453E+00  0.10000E+01  0.56547E+00
  0.20000E+00  0.10000E+01  0.56547E+00
  0.40000E+00  0.10000E+01  0.60000E+00
  0.36547E+00  0.10000E+01  0.60000E+00
  0.30000E+00  0.10000E+01  0.60000E+00
  0.23453E+00  0.10000E+01  0.60000E+00
  0.20000E+00  0.10000E+01  0.60000E+00
ZONE I=5, J=5, K=1, F=POINT
  0.60000E+00  0.10000E+01  0.40000E+00
  0.56547E+00  0.10000E+01  0.40000E+00
  0.50000E+00  0.10000E+01  0.40000E+00
  0.43453E+00  0.10000E+01  0.40000E+00
  0.40000E+00  0.10000E+01  0.40000E+00
  0.60000E+00  0.10000E+01  0.43453E+00
  0.56547E+00  0.10000E+01  0.43453E+00
  0.50000E+00  0.10000E+01  0.43453E+00
  0.43453E+00  0.10000E+01  0.43453E+00
  0.40000E+00  0.10000E+01  0.43453E+00
  0.60000E+00  0.10000E+01  0.50000E+00
  0.56547E+00  0.10000E+01  0.50000E+00
  0.50000E+00  0.10000E+01  0.50000E+00
  0.43453E+00  0.10000E+01  0.50000E+00
  0.40000E+00  0.10000E+01  0.50000E+00
  0.60000E+00  0.10000E+01  0.56547E+00
  0.56547E+00  0.10000E+01  0.56547E+00
  0.50000E+00  0.10000E+01  0.56547E+00
  0.43453E+00  0.10000E+01  0.56547E+00
  0.40000E+00  0.10000E+01  0.56547E+00
  0.60000E+00  0.10000E+01  0.60000E+00
  0.56547E+00  0.10000E+01  0.60000E+00
  0.50000E+00  0.10000E+01  0.60000E+00
  0.43453E+00  0.10000E+01  0.60000E+00
  0.40000E+00  0.10000E+01  0.60000E+00
ZONE I=5, J=5, K=1, F=POINT
  0.80000E+00  0.10000E+01  0.40000E+00
  0.76547E+00  0.10000E+01  0.40000E+00
  0.70000E+00  0.10000E+01  0.40000E+00
  0.63453E+00  0.10000E+01  0.40000E+00
  0.60000E+00  0.10000E+01  0.40000E+00
  0.80000E+00  0.10000E+01  0.43453E+00
  0.76547E+00  0.10000E+01  0.43453E+00
  0.70000E+00  0.10000E+01  0.43453E+00
  0.63453E+00  0.10000E+01  0.43453E+00
  0.60000E+00  0.10000E+01  0.43453E+00
  0.80000E+00  0.10000E+01  0.50000E+00
  0.76547E+00  0.10000E+01  0.50000E+00
  0.70000E+00  0.10000E+01  0.50000E+00
  0.63453E+00  0.10000E+01  0.50000E+00
  0.60000E+00  0.10000E+01  0.50000E+00
  0.80000E+00  0.10000E+01  0.56547E+00
  0.76547E+00  0.10000E+01  0.56547E+00
  0.70000E+00  0.10000E+01  0.56547E+00
  0.63453E+00  0.10000E+01  0.56547E+00
  0.60000E+00  0.10000E+01  0.56547E+00
  0.80000E+00  0.10000E+01  0.60000E+00
  0.76547E+00  0.10000E+01  0.60000E+00
  0.70000E+00  0.10000E+01  0.60000E+00
  0.63453E+00  0.10000E+01  0.60000E+00
  0.60000E+00  0.10000E+01  0.60000E+00
ZONE I=5, J=5, K=1, F=POINT
  0.10000E+01  0.10000E+01  0.40000E+00
  0.96547E+00  0.10000E+01  0.40000E+00
  0.90000E+00  0.10000E+01  0.40000E+00
  0.83453E+00  0.10000E+01  0.40000E+00
  0.80000E+00  0.10000E+01  0.40000E+00
  0.10000E+01  0.10000E+01  0.43453E+00
  0.96547E+00  0.10000E+01  0.43453E+00
  0.90000E+00  0.10000E+01  0.43453E+00
  0.83453E+00  0.10000E+01  0.43453E+00
  0.80000E+00  0.10000E+01  0.43453E+00
  0.10000E+01  0.10000E+01  0.50000E+00
  0.96547E+00  0.10000E+01  0.50000E+00
  0.90000E+00  0.10000E+01  0.50000E+00
  0.83453E+00  0.10000E+01  0.50000E+00
  0.80000E+00  0.10000E+01  0.50000E+00
  0.10000E+01  0.10000E+01  0.56547E+00
  0.96547E+00  0.10000E+01  0.56547E+00
  0.90000E+00  0.10000E+01  0.56547E+00
  0.83453E+00  0.10000E+01  0.56547E+00
  0.80000E+00  0.10000E+01  0.56547E+00
  0.10000E+01  0.10000E+01  0.60000E+00
  0.96547E+00  0.10000E+01  0.60000E+00
  0.90000E+00  0.10000E+01  0.60000E+00
  0.83453E+00  0.10000E+01  0.60000E+00
  0.80000E+00  0.10000E+01  0.60000E+00
ZONE I=5, J=5, K=1, F=POINT
  0.12000E+01  0.10000E+01  0.40000E+00
  0.11655E+01  0.10000E+01  0.40000E+00
  0.11000E+01  0.10000E+01  0.40000E+00
  0.10345E+01  0.10000E+01  0.40000E+00
  0.10000E+01  0.10000E+01  0.40000E+00
  0.12000E+01  0.10000E+01  0.43453E+00
  0.11655E+01  0.10000E+01  0.43453E+00
  0.11000E+01  0.10000E+01  0.43453E+00
  0.10345E+01  0.10000E+01  0.43453E+00
  0.10000E+01  0.10000E+01  0.43453E+00
  0.12000E+01  0.10000E+01  0.50000E+00
  0.11655E+01  0.10000E+01  0.50000E+00
  0.11000E+01  0.10000E+01  0.50000E+00
  0.10345E+01  0.10000E+01  0.50000E+00
  0.10000E+01  0.10000E+01  0.50000E+00
  0.12000E+01  0.10000E+01  0.56547E+00
  0.11655E+01  0.10000E+01  0.56547E+00
  0.11000E+01  0.10000E+01  0.56547E+00
  0.10345E+01  0.10000E+01  0.56547E+00
  0.10000E+01  0.10000E+01  0.56547E+00
  0.12000E+01  0.10000E+01  0.60000E+00
  0.11655E+01  0.10000E+01  0.60000E+00
  0.11000E+01  0.10000E+01  0.60000E+00
  0.10345E+01  0.10000E+01  0.60000E+00
  0.10000E+01  0.10000E+01  0.60000E+00
ZONE I=5, J=5, K=1, F=POINT
  0.14000E+01  0.10000E+01  0.40000E+00
  0.13655E+01  0.10000E+01  0.40000E+00
  0.13000E+01  0.10000E+01  0.40000E+00
  0.12345E+01  0.10000E+01  0.40000E+00
  0.12000E+01  0.10000E+01  0.40000E+00
  0.14000E+01  0.10000E+01  0.43453E+00
  0.13655E+01  0.10000E+01  0.43453E+00
  0.13000E+01  0.10000E+01  0.43453E+00
  0.12345E+01  0.10000E+01  0.43453E+00
  0.12000E+01  0.10000E+01  0.43453E+00
  0.14000E+01  0.10000E+01  0.50000E+00
  0.13655E+01  0.10000E+01  0.50000E+00
  0.13000E+01  0.10000E+01  0.50000E+00
  0.12345E+01  0.10000E+01  0.50000E+00
  0.12000E+01  0.10000E+01  0.50000E+00
  0.14000E+01  0.10000E+01  0.56547E+00
  0.13655E+01  0.10000E+01  0.56547E+00
  0.13000E+01  0.10000E+01  0.56547E+00
  0.12345E+01  0.10000E+01  0.56547E+00
  0.12000E+01  0.10000E+01  0.56547E+00
  0.14000E+01  0.10000E+01  0.60000E+00
  0.13655E+01  0.10000E+01  0.60000E+00
  0.13000E+01  0.10000E+01  0.60000E+00
  0.12345E+01  0.10000E+01  0.60000E+00
  0.12000E+01  0.10000E+01  0.60000E+00
ZONE I=5, J=5, K=1, F=POINT
  0.16000E+01  0.10000E+01  0.40000E+00
  0.15655E+01  0.10000E+01  0.40000E+00
  0.15000E+01  0.10000E+01  0.40000E+00
  0.14345E+01  0.10000E+01  0.40000E+00
  0.14000E+01  0.10000E+01  0.40000E+00
  0.16000E+01  0.10000E+01  0.43453E+00
  0.15655E+01  0.10000E+01  0.43453E+00
  0.15000E+01  0.10000E+01  0.43453E+00
  0.14345E+01  0.10000E+01  0.43453E+00
  0.14000E+01  0.10000E+01  0.43453E+00
  0.16000E+01  0.10000E+01  0.50000E+00
  0.15655E+01  0.10000E+01  0.50000E+00
  0.15000E+01  0.10000E+01  0.50000E+00
  0.14345E+01  0.10000E+01  0.50000E+00
  0.14000E+01  0.10000E+01  0.50000E+00
  0.16000E+01  0.10000E+01  0.56547E+00
  0.15655E+01  0.10000E+01  0.56547E+00
  0.15000E+01  0.10000E+01  0.56547E+00
  0.14345E+01  0.10000E+01  0.56547E+00
  0.14000E+01  0.10000E+01  0.56547E+00
  0.16000E+01  0.10000E+01  0.60000E+00
  0.15655E+01  0.10000E+01  0.60000E+00
  0.15000E+01  0.10000E+01  0.60000E+00
  0.14345E+01  0.10000E+01  0.60000E+00
  0.14000E+01  0.10000E+01  0.60000E+00
ZONE I=5, J=5, K=1, F=POINT
  0.18000E+01  0.10000E+01  0.40000E+00
  0.17655E+01  0.10000E+01  0.40000E+00
  0.17000E+01  0.10000E+01  0.40000E+00
  0.16345E+01  0.10000E+01  0.40000E+00
  0.16000E+01  0.10000E+01  0.40000E+00
  0.18000E+01  0.10000E+01  0.43453E+00
  0.17655E+01  0.10000E+01  0.43453E+00
  0.17000E+01  0.10000E+01  0.43453E+00
  0.16345E+01  0.10000E+01  0.43453E+00
  0.16000E+01  0.10000E+01  0.43453E+00
  0.18000E+01  0.10000E+01  0.50000E+00
  0.17655E+01  0.10000E+01  0.50000E+00
  0.17000E+01  0.10000E+01  0.50000E+00
  0.16345E+01  0.10000E+01  0.50000E+00
  0.16000E+01  0.10000E+01  0.50000E+00
  0.18000E+01  0.10000E+01  0.56547E+00
  0.17655E+01  0.10000E+01  0.56547E+00
  0.17000E+01  0.10000E+01  0.56547E+00
  0.16345E+01  0.10000E+01  0.56547E+00
  0.16000E+01  0.10000E+01  0.56547E+00
  0.18000E+01  0.10000E+01  0.60000E+00
  0.17655E+01  0.10000E+01  0.60000E+00
  0.17000E+01  0.10000E+01  0.60000E+00
  0.16345E+01  0.10000E+01  0.60000E+00
  0.16000E+01  0.10000E+01  0.60000E+00
ZONE I=5, J=5, K=1, F=POINT
  0.20000E+01  0.10000E+01  0.40000E+00
  0.19655E+01  0.10000E+01  0.40000E+00