TITLE = "../MESH/Convergence_0000000000.hmesh"
VARIABLES = "x","y","z"
ZONE I=4, J=4, K=1, F=POINT
  0.28571E+00  0.10000E+01  0.00000E+00
  0.20674E+00  0.10000E+01  0.00000E+00
  0.78969E-01  0.10000E+01  0.00000E+00
  0.00000E+00  0.10000E+01  0.00000E+00
  0.28571E+00  0.10000E+01  0.78969E-01
  0.20674E+00  0.10000E+01  0.78969E-01
  0.78969E-01  0.10000E+01  0.78969E-01
  0.00000E+00  0.10000E+01  0.78969E-01
  0.28571E+00  0.10000E+01  0.20674E+00
  0.20674E+00  0.10000E+01  0.20674E+00
  0.78969E-01  0.10000E+01  0.20674E+00
  0.00000E+00  0.10000E+01  0.20674E+00
  0.28571E+00  0.10000E+01  0.28571E+00
  0.20674E+00  0.10000E+01  0.28571E+00
  0.78969E-01  0.10000E+01  0.28571E+00
  0.00000E+00  0.10000E+01  0.28571E+00
ZONE I=4, J=4, K=1, F=POINT
  0.57143E+00  0.10000E+01  0.00000E+00
  0.49246E+00  0.10000E+01  0.00000E+00
  0.36468E+00  0.10000E+01  0.00000E+00
  0.28571E+00  0.10000E+01  0.00000E+00
  0.57143E+00  0.10000E+01  0.78969E-01
  0.49246E+00  0.10000E+01  0.78969E-01
  0.36468E+00  0.10000E+01  0.78969E-01
  0.28571E+00  0.10000E+01  0.78969E-01
  0.57143E+00  0.10000E+01  0.20674E+00
  0.49246E+00  0.10000E+01  0.20674E+00
  0.36468E+00  0.10000E+01  0.20674E+00
  0.28571E+00  0.10000E+01  0.20674E+00
  0.57143E+00  0.10000E+01  0.28571E+00
  0.49246E+00  0.10000E+01  0.28571E+00
  0.36468E+00  0.10000E+01  0.28571E+00
  0.28571E+00  0.10000E+01  0.28571E+00
ZONE I=4, J=4, K=1, F=POINT
  0.85714E+00  0.10000E+01  0.00000E+00
  0.77817E+00  0.10000E+01  0.00000E+00
  0.65040E+00  0.10000E+01  0.00000E+00
  0.57143E+00  0.10000E+01  0.00000E+00
  0.85714E+00  0.10000E+01  0.78969E-01
  0.77817E+00  0.10000E+01  0.78969E-01
  0.65040E+00  0.10000E+01  0.78969E-01
  0.57143E+00  0.10000E+01  0.78969E-01
  0.85714E+00  0.10000E+01  0.20674E+00
  0.77817E+00  0.10000E+01  0.20674E+00
  0.65040E+00  0.10000E+01  0.20674E+00
  0.57143E+00  0.10000E+01  0.20674E+00
  0.85714E+00  0.10000E+01  0.28571E+00
  0.77817E+00  0.10000E+01  0.28571E+00
  0.65040E+00  0.10000E+01  0.28571E+00
  0.57143E+00  0.10000E+01  0.28571E+00
ZONE I=4, J=4, K=1, F=POINT
  0.11429E+01  0.10000E+01  0.00000E+00
  0.10639E+01  0.10000E+01  0.00000E+00
  0.93611E+00  0.10000E+01  0.00000E+00
  0.85714E+00  0.10000E+01  0.00000E+00
  0.11429E+01  0.10000E+01  0.78969E-01
  0.10639E+01  0.10000E+01  0.78969E-01
  0.93611E+00  0.10000E+01  0.78969E-01
  0.85714E+00  0.10000E+01  0.78969E-01
  0.11429E+01  0.10000E+01  0.20674E+00
  0.10639E+01  0.10000E+01  0.20674E+00
  0.93611E+00  0.10000E+01  0.20674E+00
  0.85714E+00  0.10000E+01  0.20674E+00
  0.11429E+01  0.10000E+01  0.28571E+00
  0.10639E+01  0.10000E+01  0.28571E+00
  0.93611E+00  0.10000E+01  0.28571E+00
  0.85714E+00  0.10000E+01  0.28571E+00
ZONE I=4, J=4, K=1, F=POINT
  0.14286E+01  0.10000E+01  0.00000E+00
  0.13496E+01  0.10000E+01  0.00000E+00
  0.12218E+01  0.10000E+01  0.00000E+00
  0.11429E+01  0.10000E+01  0.00000E+00
  0.14286E+01  0.10000E+01  0.78969E-01
  0.13496E+01  0.10000E+01  0.78969E-01
  0.12218E+01  0.10000E+01  0.78969E-01
  0.11429E+01  0.10000E+01  0.78969E-01
  0.14286E+01  0.10000E+01  0.20674E+00
  0.13496E+01  0.10000E+01  0.20674E+00
  0.12218E+01  0.10000E+01  0.20674E+00
  0.11429E+01  0.10000E+01  0.20674E+00
  0.14286E+01  0.10000E+01  0.28571E+00
  0.13496E+01  0.10000E+01  0.28571E+00
  0.12218E+01  0.10000E+01  0.28571E+00
  0.11429E+01  0.10000E+01  0.28571E+00
ZONE I=4, J=4, K=1, F=POINT
  0.17143E+01  0.10000E+01  0.00000E+00
  0.16353E+01  0.10000E+01  0.00000E+00
  0.15075E+01  0.10000E+01  0.00000E+00
  0.14286E+01  0.10000E+01  0.00000E+00
  0.17143E+01  0.10000E+01  0.78969E-01
  0.16353E+01  0.10000E+01  0.78969E-01
  0.15075E+01  0.10000E+01  0.78969E-01
  0.14286E+01  0.10000E+01  0.78969E-01
  0.17143E+01  0.10000E+01  0.20674E+00
  0.16353E+01  0.10000E+01  0.20674E+00
  0.15075E+01  0.10000E+01  0.20674E+00
  0.14286E+01  0.10000E+01  0.20674E+00
  0.17143E+01  0.10000E+01  0.28571E+00
  0.16353E+01  0.10000E+01  0.28571E+00
  0.15075E+01  0.10000E+01  0.28571E+00
  0.14286E+01  0.10000E+01  0.28571E+00
ZONE I=4, J=4, K=1, F=POINT
  0.20000E+01  0.10000E+01  0.00000E+00
  0.19210E+01  0.10000E+01  0.00000E+00
  0.17933E+01  0.10000E+01  0.00000E+00
  0.17143E+01  0.10000E+01  0.00000E+00
  0.20000E+01  0.10000E+01  0.78969E-01
  0.19210E+01  0.10000E+01  0.78969E-01
  0.17933E+01  0.10000E+01  0.78969E-01
  0.17143E+01  0.10000E+01  0.78969E-01
  0.20000E+01  0.10000E+01  0.20674E+00
  0.19210E+01  0.10000E+01  0.20674E+00
  0.17933E+01  0.10000E+01  0.20674E+00
  0.17143E+01  0.10000E+01  0.20674E+00
  0.20000E+01  0.10000E+01  0.28571E+00
  0.19210E+01  0.10000E+01  0.28571E+00
  0.17933E+01  0.10000E+01  0.28571E+00
  0.17143E+01  0.10000E+01  0.28571E+00
ZONE I=4, J=4, K=1, F=POINT
  0.28571E+00  0.10000E+01  0.28571E+00
  0.20674E+00  0.10000E+01  0.28571E+00
  0.78969E-01  0.10000E+01  0.28571E+00
  0.00000E+00  0.10000E+01  0.28571E+00
  0.28571E+00  0.10000E+01  0.36468E+00
  0.20674E+00  0.10000E+01  0.36468E+00
  0.78969E-01  0.10000E+01  0.36468E+00
  0.00000E+00  0.10000E+01  0.36468E+00
  0.28571E+00  0.10000E+01  0.49246E+00
  0.20674E+00  0.10000E+01  0.49246E+00
  0.78969E-01  0.10000E+01  0.49246E+00
  0.00000E+00  0.10000E+01  0.49246E+00
  0.28571E+00  0.10000E+01  0.57143E+00
  0.20674E+00  0.10000E+01  0.57143E+00
  0.78969E-01  0.10000E+01  0.57143E+00
  0.00000E+00  0.10000E+01  0.57143E+00
ZONE I=4, J=4, K=1, F=POINT
  0.57143E+00  0.10000E+01  0.28571E+00
  0.49246E+00  0.10000E+01  0.28571E+00
  0.36468E+00  0.10000E+01  0.28571E+00
  0.28571E+00  0.10000E+01  0.28571E+00
  0.57143E+00  0.10000E+01  0.36468E+00
  0.49246E+00  0.10000E+01  0.36468E+00
  0.36468E+00  0.10000E+01  0.36468E+00
  0.28571E+00  0.10000E+01  0.36468E+00
  0.57143E+00  0.10000E+01  0.49246E+00
  0.49246E+00  0.10000E+01  0.49246E+00
  0.36468E+00  0.10000E+01  0.49246E+00
  0.28571E+00  0.10000E+01  0.49246E+00
  0.57143E+00  0.10000E+01  0.57143E+00
  0.49246E+00  0.10000E+01  0.57143E+00
  0.36468E+00  0.10000E+01  0.57143E+00
  0.28571E+00  0.10000E+01  0.57143E+00
ZONE I=4, J=4, K=1, F=POINT
  0.85714E+00  0.10000E+01  0.28571E+00
  0.77817E+00  0.10000E+01  0.28571E+00
  0.65040E+00  0.10000E+01  0.28571E+00
  0.57143E+00  0.10000E+01  0.28571E+00
  0.85714E+00  0.10000E+01  0.36468E+00
  0.77817E+00  0.10000E+01  0.36468E+00
  0.65040E+00  0.10000E+01  0.36468E+00
  0.57143E+00  0.10000E+01  0.36468E+00
  0.85714E+00  0.10000E+01  0.49246E+00
  0.77817E+00  0.10000E+01  0.49246E+00
  0.65040E+00  0.10000E+01  0.49246E+00
  0.57143E+00  0.10000E+01  0.49246E+00
  0.85714E+00  0.10000E+01  0.57143E+00
  0.77817E+00  0.10000E+01  0.57143E+00
  0.65040E+00  0.10000E+01  0.57143E+00
  0.57143E+00  0.10000E+01  0.57143E+00
ZONE I=4, J=4, K=1, F=POINT
  0.11429E+01  0.10000E+01  0.28571E+00
  0.10639E+01  0.10000E+01  0.28571E+00
  0.93611E+00  0.10000E+01  0.28571E+00
  0.85714E+00  0.10000E+01  0.28571E+00
  0.11429E+01  0.10000E+01  0.36468E+00
  0.10639E+01  0.10000E+01  0.36468E+00
  0.93611E+00  0.10000E+01  0.36468E+00
  0.85714E+00  0.10000E+01  0.36468E+00
  0.11429E+01  0.10000E+01  0.49246E+00
  0.10639E+01  0.10000E+01  0.49246E+00
  0.93611E+00  0.10000E+01  0.49246E+00
  0.85714E+00  0.10000E+01  0.49246E+00
  0.11429E+01  0.10000E+01  0.57143E+00
  0.10639E+01  0.10000E+01  0.57143E+00
  0.93611E+00  0.10000E+01  0.57143E+00
  0.85714E+00  0.10000E+01  0.57143E+00
ZONE I=4, J=4, K=1, F=POINT
  0.14286E+01  0.10000E+01  0.28571E+00
  0.13496E+01  0.10000E+01  0.28571E+00
  0.12218E+01  0.10000E+01  0.28571E+00
  0.11429E+01  0.10000E+01  0.28571E+00
  0.14286E+01  0.10000E+01  0.36468E+00
  0.13496E+01  0.10000E+01  0.36468E+00
  0.12218E+01  0.10000E+01  0.36468E+00
  0.11429E+01  0.10000E+01  0.36468E+00
  0.14286E+01  0.10000E+01  0.49246E+00
  0.13496E+01  0.10000E+01  0.49246E+00
  0.12218E+01  0.10000E+01  0.49246E+00
  0.11429E+01  0.10000E+01  0.49246E+00
  0.14286E+01  0.10000E+01  0.57143E+00
  0.13496E+01  0.10000E+01  0.57143E+00
  0.12218E+01  0.10000E+01  0.57143E+00
  0.11429E+01  0.10000E+01  0.57143E+00
ZONE I=4, J=4, K=1, F=POINT
  0.17143E+01  0.10000E+01  0.28571E+00
  0.16353E+01  0.10000E+01  0.28571E+00
  0.15075E+01  0.10000E+01  0.28571E+00
  0.14286E+01  0.10000E+01  0.28571E+00
  0.17143E+01  0.10000E+01  0.36468E+00
  0.16353E+01  0.10000E+01  0.36468E+00
  0.15075E+01  0.10000E+01  0.36468E+00
  0.14286E+01  0.10000E+01  0.36468E+00
  0.17143E+01  0.10000E+01  0.49246E+00
  0.16353E+01  0.10000E+01  0.49246E+00
  0.15075E+01  0.10000E+01  0.49246E+00
  0.14286E+01  0.10000E+01  0.49246E+00
  0.17143E+01  0.10000E+01  0.57143E+00
  0.16353E+01  0.10000E+01  0.57143E+00
  0.15075E+01  0.10000E+01  0.57143E+00
  0.14286E+01  0.10000E+01  0.57143E+00
ZONE I=4, J=4, K=1, F=POINT
  0.20000E+01  0.10000E+01  0.28571E+00
  0.19210E+01  0.10000E+01  0.28571E+00
  0.17933E+01  0.10000E+01  0.28571E+00
  0.17143E+01  0.10000E+01  0.28571E+00
  0.20000E+01  0.10000E+01  0.36468E+00
  0.19210E+01  0.10000E+01  0.36468E+00
  0.17933E+01  0.10000E+01  0.36468E+00
  0.17143E+01  0.10000E+01  0.36468E+00
  0.20000E+01  0.10000E+01  0.49246E+00
  0.19210E+01  0.10000E+01  0.49246E+00
  0.17933E+01  0.10000E+01  0.49246E+00
  0.17143E+01  0.10000E+01  0.49246E+00
  0.20000E+01  0.10000E+01  0.57143E+00
  0.19210E+01  0.10000E+01  0.57143E+00
  0.17933E+01  0.10000E+01  0.57143E+00
  0.17143E+01  0.10000E+01  0.57143E+00
ZONE I=4, J=4, K=1, F=POINT
  0.28571E+00  0.10000E+01  0.57143E+00
  0.20674E+00  0.10000E+01  0.57143E+00
  0.78969E-01  0.10000E+01  0.57143E+00
  0.00000E+00  0.10000E+01  0.57143E+00
  0.28571E+00  0.10000E+01  0.65040E+00
  0.20674E+00  0.10000E+01  0.65040E+00
  0.78969E-01  0.10000E+01  0.65040E+00
  0.00000E+00  0.10000E+01  0.65040E+00
  0.28571E+00  0.10000E+01  0.77817E+00
  0.20674E+00  0.10000E+01  0.77817E+00
  0.78969E-01  0.10000E+01  0.77817E+00
  0.00000E+00  0.10000E+01  0.77817E+00
  0.28571E+00  0.10000E+01  0.85714E+00
  0.20674E+00  0.10000E+01  0.85714E+00
  0.78969E-01  0.10000E+01  0.85714E+00
  0.00000E+00  0.10000E+01  0.85714E+00
ZONE I=4, J=4, K=1, F=POINT
  0.57143E+00  0.10000E+01  0.57143E+00
  0.49246E+00  0.10000E+01  0.57143E+00
  0.36468E+00  0.10000E+01  0.57143E+00
  0.28571E+00  0.10000E+01  0.57143E+00
  0.57143E+00  0.10000E+01  0.65040E+00
  0.49246E+00  0.10000E+01  0.65040E+00
  0.36468E+00  0.10000E+01  0.65040E+00
  0.28571E+00  0.10000E+01  0.65040E+00
  0.57143E+00  0.10000E+01  0.77817E+00
  0.49246E+00  0.10000E+01  0.77817E+00
  0.36468E+00  0.10000E+01  0.77817E+00
  0.28571E+00  0.10000E+01  0.77817E+00
  0.57143E+00  0.10000E+01  0.85714E+00
  0.49246E+00  0.10000E+01  0.85714E+00
  0.36468E+00  0.10000E+01  0.85714E+00
  0.28571E+00  0.10000E+01  0.85714E+00
ZONE I=4, J=4, K=1, F=POINT
  0.85714E+00  0.10000E+01  0.57143E+00
  0.77817E+00  0.10000E+01  0.57143E+00
  0.65040E+00  0.10000E+01  0.57143E+00
  0.57143E+00  0.10000E+01  0.57143E+00
  0.85714E+00  0.10000E+01  0.65040E+00
  0.77817E+00  0.10000E+01  0.65040E+00
  0.65040E+00  0.10000E+01  0.65040E+00
  0.57143E+00  0.10000E+01  0.65040E+00
  0.85714E+00  0.10000E+01  0.77817E+00
  0.77817E+00  0.10000E+01  0.77817E+00
  0.65040E+00  0.10000E+01  0.77817E+00
  0.57143E+00  0.10000E+01  0.77817E+00
  0.85714E+00  0.10000E+01  0.85714E+00
  0.77817E+00  0.10000E+01  0.85714E+00
  0.65040E+00  0.10000E+01  0.85714E+00
  0.57143E+00  0.10000E+01  0.85714E+00
ZONE I=4, J=4, K=1, F=POINT
  0.11429E+01  0.10000E+01  0.57143E+00
  0.10639E+01  0.10000E+01  0.57143E+00
  0.93611E+00  0.10000E+01  0.57143E+00
  0.85714E+00  0.10000E+01  0.57143E+00
  0.11429E+01  0.10000E+01  0.65040E+00
  0.10639E+01  0.10000E+01  0.65040E+00
  0.93611E+00  0.10000E+01  0.65040E+00
  0.85714E+00  0.10000E+01  0.65040E+00
  0.11429E+01  0.10000E+01  0.77817E+00
  0.10639E+01  0.10000E+01  0.77817E+00
  0.93611E+00  0.10000E+01  0.77817E+00
  0.85714E+00  0.10000E+01  0.77817E+00
  0.11429E+01  0.10000E+01  0.85714E+00
  0.10639E+01  0.10000E+01  0.85714E+00
  0.93611E+00  0.10000E+01  0.85714E+00
  0.85714E+00  0.10000E+01  0.85714E+00
ZONE I=4, J=4, K=1, F=POINT
  0.14286E+01  0.10000E+01  0.57143E+00
  0.13496E+01  0.10000E+01  0.57143E+00
  0.12218E+01  0.10000E+01  0.57143E+00
  0.11429E+01  0.10000E+01  0.57143E+00
  0.14286E+01  0.10000E+01  0.65040E+00
  0.13496E+01  0.10000E+01  0.65040E+00
  0.12218E+01  0.10000E+01  0.65040E+00
  0.11429E+01  0.10000E+01  0.65040E+00
  0.14286E+01  0.10000E+01  0.77817E+00
  0.13496E+01  0.10000E+01  0.77817E+00
  0.12218E+01  0.10000E+01  0.77817E+00
  0.11429E+01  0.10000E+01  0.77817E+00
  0.14286E+01  0.10000E+01  0.85714E+00
  0.13496E+01  0.10000E+01  0.85714E+00
  0.12218E+01  0.10000E+01  0.85714E+00
  0.11429E+01  0.10000E+01  0.85714E+00
ZONE I=4, J=4, K=1, F=POINT
  0.17143E+01  0.10000E+01  0.57143E+00
  0.16353E+01  0.10000E+01  0.57143E+00
  0.15075E+01  0.10000E+01  0.57143E+00
  0.14286E+01  0.10000E+01  0.57143E+00
  0.17143E+01  0.10000E+01  0.65040E+00
  0.16353E+01  0.10000E+01  0.65040E+00
  0.15075E+01  0.10000E+01  0.65040E+00
  0.14286E+01  0.10000E+01  0.65040E+00
  0.17143E+01  0.10000E+01  0.77817E+00
  0.16353E+01  0.10000E+01  0.77817E+00
  0.15075E+01  0.10000E+01  0.77817E+00
  0.14286E+01  0.10000E+01  0.77817E+00
  0.17143E+01  0.10000E+01  0.85714E+00
  0.16353E+01  0.10000E+01  0.85714E+00
  0.15075E+01  0.10000E+01  0.85714E+00
  0.14286E+01  0.10000E+01  0.85714E+00
ZONE I=4, J=4, K=1, F=POINT
  0.20000E+01  0.10000E+01  0.57143E+00
  0.19210E+01  0.10000E+01  0.57143E+00
  0.17933E+01  0.10000E+01  0.57143E+00
  0.17143E+01  0.10000E+01  0.57143E+00
  0.20000E+01  0.10000E+01  0.65040E+00
  0.19210E+01  0.10000E+01  0.65040E+00
  0.17933E+01  0.10000E+01  0.65040E+00
  0.17143E+01  0.10000E+01  0.65040E+00
  0.20000E+01  0.10000E+01  0.77817E+00
  0.19210E+01  0.10000E+01  0.77817E+00
  0.17933E+01  0.10000E+01  0.77817E+00
  0.17143E+01  0.10000E+01  0.77817E+00
  0.20000E+01  0.10000E+01  0.85714E+00
  0.19210E+01  0.10000E+01  0.85714E+00
  0.17933E+01  0.10000E+01  0.85714E+00
  0.17143E+01  0.10000E+01  0.85714E+00
ZONE I=4, J=4, K=1, F=POINT
  0.28571E+00  0.10000E+01  0.85714E+00
  0.20674E+00  0.10000E+01  0.85714E+00
  0.78969E-01  0.10000E+01  0.85714E+00
  0.00000E+00  0.10000E+01  0.85714E+00
  0.28571E+00  0.10000E+01  0.93611E+00
  0.20674E+00  0.10000E+01  0.93611E+00
  0.78969E-01  0.10000E+01  0.93611E+00
  0.00000E+00  0.10000E+01  0.93611E+00
  0.28571E+00  0.10000E+01  0.10639E+01
  0.20674E+00  0.10000E+01  0.10639E+01
  0.78969E-01  0.10000E+01  0.10639E+01
  0.00000E+00  0.10000E+01  0.10639E+01
  0.28571E+00  0.10000E+01  0.11429E+01
  0.20674E+00  0.10000E+01  0.11429E+01
  0.78969E-01  0.10000E+01  0.11429E+01
  0.00000E+00  0.10000E+01  0.11429E+01
ZONE I=4, J=4, K=1, F=POINT
  0.57143E+00  0.10000E+01  0.85714E+00
  0.49246E+00  0.10000E+01  0.85714E+00
  0.36468E+00  0.10000E+01  0.85714E+00
  0.28571E+00  0.10000E+01  0.85714E+00
  0.57143E+00  0.10000E+01  0.93611E+00
  0.49246E+00  0.10000E+01  0.93611E+00
  0.36468E+00  0.10000E+01  0.93611E+00
  0.28571E+00  0.10000E+01  0.93611E+00
  0.57143E+00  0.10000E+01  0.10639E+01
  0.49246E+00  0.10000E+01  0.10639E+01
  0.36468E+00  0.10000E+01  0.10639E+01
  0.28571E+00  0.10000E+01  0.10639E+01
  0.57143E+00  0.10000E+01  0.11429E+01
  0.49246E+00  0.10000E+01  0.11429E+01
  0.36468E+00  0.10000E+01  0.11429E+01
  0.28571E+00  0.10000E+01  0.11429E+01
ZONE I=4, J=4, K=1, F=POINT
  0.85714E+00  0.10000E+01  0.85714E+00
  0.77817E+00  0.10000E+01  0.85714E+00
  0.65040E+00  0.10000E+01  0.85714E+00
  0.57143E+00  0.10000E+01  0.85714E+00
  0.85714E+00  0.10000E+01  0.93611E+00
  0.77817E+00  0.10000E+01  0.93611E+00
  0.65040E+00  0.10000E+01  0.93611E+00
  0.57143E+00  0.10000E+01  0.93611E+00
  0.85714E+00  0.10000E+01  0.10639E+01
  0.77817E+00  0.10000E+01  0.10639E+01
  0.65040E+00  0.10000E+01  0.10639E+01
  0.57143E+00  0.10000E+01  0.10639E+01
  0.85714E+00  0.10000E+01  0.11429E+01
  0.77817E+00  0.10000E+01  0.11429E+01
  0.65040E+00  0.10000E+01  0.11429E+01
  0.57143E+00  0.10000E+01  0.11429E+01
ZONE I=4, J=4, K=1, F=POINT
  0.11429E+01  0.10000E+01  0.85714E+00
  0.10639E+01  0.10000E+01  0.85714E+00
  0.93611E+00  0.10000E+01  0.85714E+00
  0.85714E+00  0.10000E+01  0.85714E+00
  0.11429E+01  0.10000E+01  0.93611E+00
  0.10639E+01  0.10000E+01  0.93611E+00
  0.93611E+00  0.10000E+01  0.93611E+00
  0.85714E+00  0.10000E+01  0.93611E+00
  0.11429E+01  0.10000E+01  0.10639E+01
  0.10639E+01  0.10000E+01  0.10639E+01
  0.93611E+00  0.10000E+01  0.10639E+01
  0.85714E+00  0.10000E+01  0.10639E+01
  0.11429E+01  0.10000E+01  0.11429E+01
  0.10639E+01  0.10000E+01  0.11429E+01
  0.93611E+00  0.10000E+01  0.11429E+01
  0.85714E+00  0.10000E+01  0.11429E+01
ZONE I=4, J=4, K=1, F=POINT
  0.14286E+01  0.10000E+01  0.85714E+00
  0.13496E+01  0.10000E+01  0.85714E+00
  0.12218E+01  0.10000E+01  0.85714E+00
  0.11429E+01  0.10000E+01  0.85714E+00
  0.14286E+01  0.10000E+01  0.93611E+00
  0.13496E+01  0.10000E+01  0.93611E+00
  0.12218E+01  0.10000E+01  0.93611E+00
  0.11429E+01  0.10000E+01  0.93611E+00
  0.14286E+01  0.10000E+01  0.10639E+01
  0.13496E+01  0.10000E+01  0.10639E+01
  0.12218E+01  0.10000E+01  0.10639E+01
  0.11429E+01  0.10000E+01  0.10639E+01
  0.14286E+01  0.10000E+01  0.11429E+01
  0.13496E+01  0.10000E+01  0.11429E+01
  0.12218E+01  0.10000E+01  0.11429E+01
  0.11429E+01  0.10000E+01  0.11429E+01
ZONE I=4, J=4, K=1, F=POINT
  0.17143E+01  0.10000E+01  0.85714E+00
  0.16353E+01  0.10000E+01  0.85714E+00
  0.15075E+01  0.10000E+01  0.85714E+00
  0.14286E+01  0.10000E+01  0.85714E+00
  0.17143E+01  0.10000E+01  0.93611E+00
  0.16353E+01  0.10000E+01  0.93611E+00
  0.15075E+01  0.10000E+01  0.93611E+00
  0.14286E+01  0.10000E+01  0.93611E+00
  0.17143E+01  0.10000E+01  0.10639E+01
  0.16353E+01  0.10000E+01  0.10639E+01
  0.15075E+01  0.10000E+01  0.10639E+01
  0.14286E+01  0.10000E+01  0.10639E+01
  0.17143E+01  0.10000E+01  0.11429E+01
  0.16353E+01  0.10000E+01  0.11429E+01
  0.15075E+01  0.10000E+01  0.11429E+01
  0.14286E+01  0.10000E+01  0.11429E+01
ZONE I=4, J=4, K=1, F=POINT
  0.20000E+01  0.10000E+01  0.85714E+00
  0.19210E+01  0.10000E+01  0.85714E+00
  0.17933E+01  0.10000E+01  0.85714E+00
  0.17143E+01  0.10000E+01  0.85714E+00
  0.20000E+01  0.10000E+01  0.93611E+00
  0.19210E+01  0.10000E+01  0.93611E+00
  0.17933E+01  0.10000E+01  0.93611E+00
  0.17143E+01  0.10000E+01  0.93611E+00
  0.20000E+01  0.10000E+01  0.10639E+01
  0.19210E+01  0.10000E+01  0.10639E+01
  0.17933E+01  0.10000E+01  0.10639E+01
  0.17143E+01  0.10000E+01  0.10639E+01
  0.20000E+01  0.10000E+01  0.11429E+01
  0.19210E+01  0.10000E+01  0.11429E+01
  0.17933E+01  0.10000E+01  0.11429E+01
  0.17143E+01  0.10000E+01  0.11429E+01
ZONE I=4, J=4, K=1, F=POINT
  0.28571E+00  0.10000E+01  0.11429E+01
  0.20674E+00  0.10000E+01  0.11429E+01
  0.78969E-01  0.10000E+01  0.11429E+01
  0.00000E+00  0.10000E+01  0.11429E+01
  0.28571E+00  0.10000E+01  0.12218E+01
  0.20674E+00  0.10000E+01  0.12218E+01
  0.78969E-01  0.10000E+01  0.12218E+01
  0.00000E+00  0.10000E+01  0.12218E+01
  0.28571E+00  0.10000E+01  0.13496E+01
  0.20674E+00  0.10000E+01  0.13496E+01
  0.78969E-01  0.10000E+01  0.13496E+01
  0.00000E+00  0.10000E+01  0.13496E+01
  0.28571E+00  0.10000E+01  0.14286E+01
  0.20674E+00  0.10000E+01  0.14286E+01
  0.78969E-01  0.10000E+01  0.14286E+01
  0.00000E+00  0.10000E+01  0.14286E+01
ZONE I=4, J=4, K=1, F=POINT
  0.57143E+00  0.10000E+01  0.11429E+01
  0.49246E+00  0.10000E+01  0.11429E+01
  0.36468E+00  0.10000E+01  0.11429E+01
  0.28571E+00  0.10000E+01  0.11429E+01
  0.57143E+00  0.10000E+01  0.12218E+01
  0.49246E+00  0.10000E+01  0.12218E+01
  0.36468E+00  0.10000E+01  0.12218E+01
  0.28571E+00  0.10000E+01  0.12218E+01
  0.57143E+00  0.10000E+01  0.13496E+01
  0.49246E+00  0.10000E+01  0.13496E+01
  0.36468E+00  0.10000E+01  0.13496E+01
  0.28571E+00  0.10000E+01  0.13496E+01
  0.57143E+00  0.10000E+01  0.14286E+01
  0.49246E+00  0.10000E+01  0.14286E+01
  0.36468E+00  0.10000E+01  0.14286E+01
  0.28571E+00  0.10000E+01  0.14286E+01
ZONE I=4, J=4, K=1, F=POINT
  0.85714E+00  0.10000E+01  0.11429E+01
  0.77817E+00  0.10000E+01  0.11429E+01
  0.65040E+00  0.10000E+01  0.11429E+01
  0.57143E+00  0.10000E+01  0.11429E+01
  0.85714E+00  0.10000E+01  0.12218E+01
  0.77817E+00  0.10000E+01  0.12218E+01
  0.65040E+00  0.10000E+01  0.12218E+01
  0.57143E+00  0.10000E+01  0.12218E+01
  0.85714E+00  0.10000E+01  0.13496E+01
  0.77817E+00  0.10000E+01  0.13496E+01
  0.65040E+00  0.10000E+01  0.13496E+01
  0.57143E+00  0.10000E+01  0.13496E+01
  0.85714E+00  0.10000E+01  0.14286E+01
  0.77817E+00  0.10000E+01  0.14286E+01
  0.65040E+00  0.10000E+01  0.14286E+01
  0.57143E+00  0.10000E+01  0.14286E+01
ZONE I=4, J=4, K=1, F=POINT
  0.11429E+01  0.10000E+01  0.11429E+01
  0.10639E+01  0.10000E+01  0.11429E+01
  0.93611E+00  0.10000E+01  0.11429E+01
  0.85714E+00  0.10000E+01  0.11429E+01
  0.11429E+01  0.10000E+01  0.12218E+01
  0.10639E+01  0.10000E+01  0.12218E+01
  0.93611E+00  0.10000E+01  0.12218E+01
  0.85714E+00  0.10000E+01  0.12218E+01
  0.11429E+01  0.10000E+01  0.13496E+01
  0.10639E+01  0.10000E+01  0.13496E+01
  0.93611E+00  0.10000E+01  0.13496E+01
  0.85714E+00  0.10000E+01  0.13496E+01
  0.11429E+01  0.10000E+01  0.14286E+01
  0.10639E+01  0.10000E+01  0.14286E+01
  0.93611E+00  0.10000E+01  0.14286E+01
  0.85714E+00  0.10000E+01  0.14286E+01
ZONE I=4, J=4, K=1, F=POINT
  0.14286E+01  0.10000E+01  0.11429E+01
  0.13496E+01  0.10000E+01  0.11429E+01
  0.12218E+01  0.10000E+01  0.11429E+01
  0.11429E+01  0.10000E+01  0.11429E+01
  0.14286E+01  0.10000E+01  0.12218E+01
  0.13496E+01  0.10000E+01  0.12218E+01
  0.12218E+01  0.10000E+01  0.12218E+01
  0.11429E+01  0.10000E+01  0.12218E+01
  0.14286E+01  0.10000E+01  0.13496E+01
  0.13496E+01  0.10000E+01  0.13496E+01
  0.12218E+01  0.10000E+01  0.13496E+01
  0.11429E+01  0.10000E+01  0.13496E+01
  0.14286E+01  0.10000E+01  0.14286E+01
  0.13496E+01  0.10000E+01  0.14286E+01
  0.12218E+01  0.10000E+01  0.14286E+01
  0.11429E+01  0.10000E+01  0.14286E+01
ZONE I=4, J=4, K=1, F=POINT
  0.17143E+01  0.10000E+01  0.11429E+01
  0.16353E+01  0.10000E+01  0.11429E+01
  0.15075E+01  0.10000E+01  0.11429E+01
  0.14286E+01  0.10000E+01  0.11429E+01
  0.17143E+01  0.10000E+01  0.12218E+01
  0.16353E+01  0.10000E+01  0.12218E+01
  0.15075E+01  0.10000E+01  0.12218E+01
  0.14286E+01  0.10000E+01  0.12218E+01
  0.17143E+01  0.10000E+01  0.13496E+01
  0.16353E+01  0.10000E+01  0.13496E+01
  0.15075E+01  0.10000E+01  0.13496E+01
  0.14286E+01  0.10000E+01  0.13496E+01
  0.17143E+01  0.10000E+01  0.14286E+01
  0.16353E+01  0.10000E+01  0.14286E+01
  0.15075E+01  0.10000E+01  0.14286E+01
  0.14286E+01  0.10000E+01  0.14286E+01
ZONE I=4, J=4, K=1, F=POINT
  0.20000E+01  0.10000E+01  0.11429E+01
  0.19210E+01  0.10000E+01  0.11429E+01
  0.17933E+01  0.10000E+01  0.11429E+01
  0.17143E+01  0.10000E+01  0.11429E+01
  0.20000E+01  0.10000E+01  0.12218E+01
  0.19210E+01  0.10000E+01  0.12218E+01
  0.17933E+01  0.10000E+01  0.12218E+01
  0.17143E+01  0.10000E+01  0.12218E+01
  0.20000E+01  0.10000E+01  0.13496E+01
  0.19210E+01  0.10000E+01  0.13496E+01
  0.17933E+01  0.10000E+01  0.13496E+01
  0.17143E+01  0.10000E+01  0.13496E+01
  0.20000E+01  0.10000E+01  0.14286E+01
  0.19210E+01  0.10000E+01  0.14286E+01
  0.17933E+01  0.10000E+01  0.14286E+01
  0.17143E+01  0.10000E+01  0.14286E+01
ZONE I=4, J=4, K=1, F=POINT
  0.28571E+00  0.10000E+01  0.14286E+01
  0.20674E+00  0.10000E+01  0.14286E+01
  0.78969E-01  0.10000E+01  0.14286E+01
  0.00000E+00  0.10000E+01  0.14286E+01
  0.28571E+00  0.10000E+01  0.15075E+01
  0.20674E+00  0.10000E+01  0.15075E+01
  0.78969E-01  0.10000E+01  0.15075E+01
  0.00000E+00  0.10000E+01  0.15075E+01
  0.28571E+00  0.10000E+01  0.16353E+01
  0.20674E+00  0.10000E+01  0.16353E+01
  0.78969E-01  0.10000E+01  0.16353E+01
  0.00000E+00  0.10000E+01  0.16353E+01
  0.28571E+00  0.10000E+01  0.17143E+01
  0.20674E+00  0.10000E+01  0.17143E+01
  0.78969E-01  0.10000E+01  0.17143E+01
  0.00000E+00  0.10000E+01  0.17143E+01
ZONE I=4, J=4, K=1, F=POINT
  0.57143E+00  0.10000E+01  0.14286E+01
  0.49246E+00  0.10000E+01  0.14286E+01
  0.36468E+00  0.10000E+01  0.14286E+01
  0.28571E+00  0.10000E+01  0.14286E+01
  0.57143E+00  0.10000E+01  0.15075E+01
  0.49246E+00  0.10000E+01  0.15075E+01
  0.36468E+00  0.10000E+01  0.15075E+01
  0.28571E+00  0.10000E+01  0.15075E+01
  0.57143E+00  0.10000E+01  0.16353E+01
  0.49246E+00  0.10000E+01  0.16353E+01
  0.36468E+00  0.10000E+01  0.16353E+01
  0.28571E+00  0.10000E+01  0.16353E+01
  0.57143E+00  0.10000E+01  0.17143E+01
  0.49246E+00  0.10000E+01  0.17143E+01
  0.36468E+00  0.10000E+01  0.17143E+01
  0.28571E+00  0.10000E+01  0.17143E+01
ZONE I=4, J=4, K=1, F=POINT
  0.85714E+00  0.10000E+01  0.14286E+01
  0.77817E+00  0.10000E+01  0.14286E+01
  0.65040E+00  0.10000E+01  0.14286E+01
  0.57143E+00  0.10000E+01  0.14286E+01
  0.85714E+00  0.10000E+01  0.15075E+01
  0.77817E+00  0.10000E+01  0.15075E+01
  0.65040E+00  0.10000E+01  0.15075E+01
  0.57143E+00  0.10000E+01  0.15075E+01
  0.85714E+00  0.10000E+01  0.16353E+01
  0.77817E+00  0.10000E+01  0.16353E+01
  0.65040E+00  0.10000E+01  0.16353E+01
  0.57143E+00  0.10000E+01  0.16353E+01
  0.85714E+00  0.10000E+01  0.17143E+01
  0.77817E+00  0.10000E+01  0.17143E+01
  0.65040E+00  0.10000E+01  0.17143E+01
  0.57143E+00  0.10000E+01  0.17143E+01
ZONE I=4, J=4, K=1, F=POINT
  0.11429E+01  0.10000E+01  0.14286E+01
  0.10639E+01  0.10000E+01  0.14286E+01
  0.93611E+00  0.10000E+01  0.14286E+01
  0.85714E+00  0.10000E+01  0.14286E+01
  0.11429E+01  0.10000E+01  0.15075E+01
  0.10639E+01  0.10000E+01  0.15075E+01
  0.93611E+00  0.10000E+01  0.15075E+01
  0.85714E+00  0.10000E+01  0.15075E+01
  0.11429E+01  0.10000E+01  0.16353E+01
  0.10639E+01  0.10000E+01  0.16353E+01
  0.93611E+00  0.10000E+01  0.16353E+01
  0.85714E+00  0.10000E+01  0.16353E+01
  0.11429E+01  0.10000E+01  0.17143E+01
  0.10639E+01  0.10000E+01  0.17143E+01
  0.93611E+00  0.10000E+01  0.17143E+01
  0.85714E+00  0.10000E+01  0.17143E+01
ZONE I=4, J=4, K=1, F=POINT
  0.14286E+01  0.10000E+01  0.14286E+01
  0.13496E+01  0.10000E+01  0.14286E+01
  0.12218E+01  0.10000E+01  0.14286E+01
  0.11429E+01  0.10000E+01  0.14286E+01
  0.14286E+01  0.10000E+01  0.15075E+01
  0.13496E+01  0.10000E+01  0.15075E+01
  0.12218E+01  0.10000E+01  0.15075E+01
  0.11429E+01  0.10000E+01  0.15075E+01
  0.14286E+01  0.10000E+01  0.16353E+01
  0.13496E+01  0.10000E+01  0.16353E+01
  0.12218E+01  0.10000E+01  0.16353E+01
  0.11429E+01  0.10000E+01  0.16353E+01
  0.14286E+01  0.10000E+01  0.17143E+01
  0.13496E+01  0.10000E+01  0.17143E+01
  0.12218E+01  0.10000E+01  0.17143E+01
  0.11429E+01  0.10000E+01  0.17143E+01
ZONE I=4, J=4, K=1, F=POINT
  0.17143E+01  0.10000E+01  0.14286E+01
  0.16353E+01  0.10000E+01  0.14286E+01
  0.15075E+01  0.10000E+01  0.14286E+01
  0.14286E+01  0.10000E+01  0.14286E+01
  0.17143E+01  0.10000E+01  0.15075E+01
  0.16353E+01  0.10000E+01  0.15075E+01
  0.15075E+01  0.10000E+01  0.15075E+01
  0.14286E+01  0.10000E+01  0.15075E+01
  0.17143E+01  0.10000E+01  0.16353E+01
  0.16353E+01  0.10000E+01  0.16353E+01
  0.15075E+01  0.10000E+01  0.16353E+01
  0.14286E+01  0.10000E+01  0.16353E+01
  0.17143E+01  0.10000E+01  0.17143E+01
  0.16353E+01  0.10000E+01  0.17143E+01
  0.15075E+01  0.10000E+01  0.17143E+01
  0.14286E+01  0.10000E+01  0.17143E+01
ZONE I=4, J=4, K=1, F=POINT
  0.20000E+01  0.10000E+01  0.14286E+01
  0.19210E+01  0.10000E+01  0.14286E+01
  0.17933E+01  0.10000E+01  0.14286E+01
  0.17143E+01  0.10000E+01  0.14286E+01
  0.20000E+01  0.10000E+01  0.15075E+01
  0.19210E+01  0.10000E+01  0.15075E+01
  0.17933E+01  0.10000E+01  0.15075E+01
  0.17143E+01  0.10000E+01  0.15075E+01
  0.20000E+01  0.10000E+01  0.16353E+01
  0.19210E+01  0.10000E+01  0.16353E+01
  0.17933E+01  0.10000E+01  0.16353E+01
  0.17143E+01  0.10000E+01  0.16353E+01
  0.20000E+01  0.10000E+01  0.17143E+01
  0.19210E+01  0.10000E+01  0.17143E+01
  0.17933E+01  0.10000E+01  0.17143E+01
  0.17143E+01  0.10000E+01  0.17143E+01
ZONE I=4, J=4, K=1, F=POINT
  0.28571E+00  0.10000E+01  0.17143E+01
  0.20674E+00  0.10000E+01  0.17143E+01
  0.78969E-01  0.10000E+01  0.17143E+01
  0.00000E+00  0.10000E+01  0.17143E+01
  0.28571E+00  0.10000E+01  0.17933E+01
  0.20674E+00  0.10000E+01  0.17933E+01
  0.78969E-01  0.10000E+01  0.17933E+01
  0.00000E+00  0.10000E+01  0.17933E+01
  0.28571E+00  0.10000E+01  0.19210E+01
  0.20674E+00  0.10000E+01  0.19210E+01
  0.78969E-01  0.10000E+01  0.19210E+01
  0.00000E+00  0.10000E+01  0.19210E+01
  0.28571E+00  0.10000E+01  0.20000E+01
  0.20674E+00  0.10000E+01  0.20000E+01
  0.78969E-01  0.10000E+01  0.20000E+01
  0.00000E+00  0.10000E+01  0.20000E+01
ZONE I=4, J=4, K=1, F=POINT
  0.57143E+00  0.10000E+01  0.17143E+01
  0.49246E+00  0.10000E+01  0.17143E+01
  0.36468E+00  0.10000E+01  0.17143E+01
  0.28571E+00  0.10000E+01  0.17143E+01
  0.57143E+00  0.10000E+01  0.17933E+01
  0.49246E+00  0.10000E+01  0.17933E+01
  0.36468E+00  0.10000E+01  0.17933E+01
  0.28571E+00  0.10000E+01  0.17933E+01
  0.57143E+00  0.10000E+01  0.19210E+01
  0.49246E+00  0.10000E+01  0.19210E+01
  0.36468E+00  0.10000E+01  0.19210E+01
  0.28571E+00  0.10000E+01  0.19210E+01
  0.57143E+00  0.10000E+01  0.20000E+01
  0.49246E+00  0.10000E+01  0.20000E+01
  0.36468E+00  0.10000E+01  0.20000E+01
  0.28571E+00  0.10000E+01  0.20000E+01
ZONE I=4, J=4, K=1, F=POINT
  0.85714E+00  0.10000E+01  0.17143E+01
  0.77817E+00  0.10000E+01  0.17143E+01
  0.65040E+00  0.10000E+01  0.17143E+01
  0.57143E+00  0.10000E+01  0.17143E+01
  0.85714E+00  0.10000E+01  0.17933E+01
  0.77817E+00  0.10000E+01  0.17933E+01
  0.65040E+00  0.10000E+01  0.17933E+01
  0.57143E+00  0.10000E+01  0.17933E+01
  0.85714E+00  0.10000E+01  0.19210E+01
  0.77817E+00  0.10000E+01  0.19210E+01
  0.65040E+00  0.10000E+01  0.19210E+01
  0.57143E+00  0.10000E+01  0.19210E+01