TITLE = "Generated from MESH/FlatPlateSA_0000000000.hmesh and RESULTS/FlatPlateSA_0000001000.hsol"
VARIABLES = "x","y","z","u","v","w","Mach","p"
ZONE T="FLUID" N=22032 E=6528 ET=BRICK, F=FEPOINT
 -0.3333300000E+00  0.0000000000E+00  0.7597242754E-02  0.6944475790E+02  0.2153984995E-14  0.3058456831E-13  0.2000000000E+00  0.1013250000E+06
 -0.2663859601E+00  0.0000000000E+00  0.7597242754E-02  0.6944475790E+02  0.1606462333E-14  0.9174951099E-13  0.2000000000E+00  0.1013250000E+06
 -0.1994419203E+00  0.0000000000E+00  0.7597242754E-02  0.6944475790E+02 -0.5082875704E-15  0.8007543870E-13  0.2000000000E+00  0.1013250000E+06
 -0.3333300000E+00 -0.5000000000E+00  0.7597242754E-02  0.6944475790E+02 -0.2759576693E-15  0.0000000000E+00  0.2000000000E+00  0.1013250000E+06
 -0.2663859601E+00 -0.5000000000E+00  0.7597242754E-02  0.6944475790E+02 -0.3557450185E-15 -0.1296350828E-12  0.2000000000E+00  0.1013250000E+06
 -0.1994419203E+00 -0.5000000000E+00  0.7597242754E-02  0.6944475790E+02 -0.3891411234E-15 -0.7417243464E-14  0.2000000000E+00  0.1013250000E+06
 -0.3333300000E+00 -0.1000000000E+01  0.7597242754E-02  0.6944475790E+02 -0.3076380480E-14 -0.1895329472E-13  0.2000000000E+00  0.1013250000E+06
 -0.2663859601E+00 -0.1000000000E+01  0.7597242754E-02  0.6944475790E+02 -0.9110133423E-15 -0.6851797947E-13  0.2000000000E+00  0.1013250000E+06
 -0.1994419203E+00 -0.1000000000E+01  0.7597242754E-02  0.6944475790E+02 -0.2614840422E-15  0.0000000000E+00  0.2000000000E+00  0.1013250000E+06
 -0.3333300000E+00  0.0000000000E+00  0.6130418827E-02  0.6944475790E+02  0.5082875704E-15 -0.9536089907E-13  0.2000000000E+00  0.1013250000E+06
 -0.2663859601E+00  0.0000000000E+00  0.6130418827E-02  0.6944475790E+02  0.0000000000E+00 -0.6506080901E-13  0.2000000000E+00  0.1013250000E+06
 -0.1994419203E+00  0.0000000000E+00  0.6130418827E-02  0.6944475790E+02 -0.2424267359E-14 -0.2735033828E-13  0.2000000000E+00  0.1013250000E+06
 -0.3333300000E+00 -0.5000000000E+00  0.6130418827E-02  0.6944475790E+02 -0.2347960483E-15 -0.8571128429E-13  0.2000000000E+00  0.1013250000E+06
 -0.2663859601E+00 -0.5000000000E+00  0.6130418827E-02  0.6944475790E+02  0.7090577511E-16 -0.6506080901E-13  0.2000000000E+00  0.1013250000E+06
 -0.1994419203E+00 -0.5000000000E+00  0.6130418827E-02  0.6944475790E+02  0.3714255503E-15 -0.6648577107E-14  0.2000000000E+00  0.1013250000E+06
 -0.3333300000E+00 -0.1000000000E+01  0.6130418827E-02  0.6944475790E+02 -0.4066300563E-14 -0.7606166950E-13  0.2000000000E+00  0.1013250000E+06
 -0.2663859601E+00 -0.1000000000E+01  0.6130418827E-02  0.6944475790E+02  0.1016575141E-14 -0.6506080901E-13  0.2000000000E+00  0.1013250000E+06
 -0.1994419203E+00 -0.1000000000E+01  0.6130418827E-02  0.6944475790E+02  0.2484241862E-14 -0.1747285819E-13  0.2000000000E+00  0.1013250000E+06
 -0.3333300000E+00  0.0000000000E+00  0.4663594900E-02  0.6944475790E+02  0.7373082995E-15 -0.1883542278E-13  0.2000000000E+00  0.1013250000E+06
 -0.2663859601E+00  0.0000000000E+00  0.4663594900E-02  0.6944475790E+02 -0.5876066574E-15 -0.5625441688E-13  0.2000000000E+00  0.1013250000E+06
 -0.1994419203E+00  0.0000000000E+00  0.4663594900E-02  0.6944475790E+02 -0.1593745760E-14  0.6186910599E-13  0.2000000000E+00  0.1013250000E+06
 -0.3333300000E+00 -0.5000000000E+00  0.4663594900E-02  0.6944475790E+02  0.1504460590E-16  0.0000000000E+00  0.2000000000E+00  0.1013250000E+06
 -0.2663859601E+00 -0.5000000000E+00  0.4663594900E-02  0.6944475790E+02  0.2834295509E-15 -0.1424743449E-12  0.2000000000E+00  0.1013250000E+06
 -0.1994419203E+00 -0.5000000000E+00  0.4663594900E-02  0.6944475790E+02  0.4516511479E-15 -0.2174871817E-12  0.2000000000E+00  0.1013250000E+06
 -0.3333300000E+00 -0.1000000000E+01  0.4663594900E-02  0.6944475790E+02 -0.1409900816E-14 -0.9935833283E-13  0.2000000000E+00  0.1013250000E+06
 -0.2663859601E+00 -0.1000000000E+01  0.4663594900E-02  0.6944475790E+02  0.5614150224E-15 -0.1799110251E-12  0.2000000000E+00  0.1013250000E+06
 -0.1994419203E+00 -0.1000000000E+01  0.4663594900E-02  0.6944475790E+02 -0.4476221419E-15  0.0000000000E+00  0.2000000000E+00  0.1013250000E+06
 -0.3333300000E+00  0.0000000000E+00  0.2862755459E-02  0.6944475790E+02 -0.4585295649E-15  0.3081011776E-13  0.2000000000E+00  0.1013250000E+06
 -0.2663859601E+00  0.0000000000E+00  0.2862755459E-02  0.6944475790E+02  0.4535326955E-15  0.9158615032E-13  0.2000000000E+00  0.1013250000E+06
 -0.1994419203E+00  0.0000000000E+00  0.2862755459E-02  0.6944475790E+02 -0.2256760908E-15  0.1618940809E-12  0.2000000000E+00  0.1013250000E+06
 -0.3333300000E+00 -0.5000000000E+00  0.2862755459E-02  0.6944475790E+02  0.3256724486E-15  0.0000000000E+00  0.2000000000E+00  0.1013250000E+06
 -0.2663859601E+00 -0.5000000000E+00  0.2862755459E-02  0.6944475790E+02  0.3787222816E-15 -0.2932878478E-12  0.2000000000E+00  0.1013250000E+06
 -0.1994419203E+00 -0.5000000000E+00  0.2862755459E-02  0.6944475790E+02  0.2111809133E-15 -0.1712787665E-12  0.2000000000E+00  0.1013250000E+06
 -0.3333300000E+00 -0.1000000000E+01  0.2862755459E-02  0.6944475790E+02  0.1664952224E-14 -0.1007793462E-12  0.2000000000E+00  0.1013250000E+06
 -0.2663859601E+00 -0.1000000000E+01  0.2862755459E-02  0.6944475790E+02 -0.4790697196E-15 -0.2321511868E-12  0.2000000000E+00  0.1013250000E+06
 -0.1994419203E+00 -0.1000000000E+01  0.2862755459E-02  0.6944475790E+02 -0.3109794565E-14  0.0000000000E+00  0.2000000000E+00  0.1013250000E+06
 -0.3333300000E+00  0.0000000000E+00  0.2310023899E-02  0.6944475790E+02 -0.1348879682E-14 -0.2530661513E-12  0.2000000000E+00  0.1013250000E+06
 -0.2663859601E+00  0.0000000000E+00  0.2310023899E-02  0.6944475790E+02 -0.1348879682E-14 -0.1726565993E-12  0.2000000000E+00  0.1013250000E+06
 -0.1994419203E+00  0.0000000000E+00  0.2310023899E-02  0.6944475790E+02  0.0000000000E+00 -0.7258158128E-13  0.2000000000E+00  0.1013250000E+06
 -0.3333300000E+00 -0.5000000000E+00  0.2310023899E-02  0.6944475790E+02  0.3651900398E-15 -0.2274582670E-12  0.2000000000E+00  0.1013250000E+06
 -0.2663859601E+00 -0.5000000000E+00  0.2310023899E-02  0.6944475790E+02  0.1783385476E-15 -0.1726565993E-12  0.2000000000E+00  0.1013250000E+06
 -0.1994419203E+00 -0.5000000000E+00  0.2310023899E-02  0.6944475790E+02  0.4648940733E-16 -0.1764381247E-13  0.2000000000E+00  0.1013250000E+06
 -0.3333300000E+00 -0.1000000000E+01  0.2310023899E-02  0.6944475790E+02 -0.1348879682E-14 -0.2018503826E-12  0.2000000000E+00  0.1013250000E+06
 -0.2663859601E+00 -0.1000000000E+01  0.2310023899E-02  0.6944475790E+02  0.6744398410E-15 -0.1726565993E-12  0.2000000000E+00  0.1013250000E+06
 -0.1994419203E+00 -0.1000000000E+01  0.2310023899E-02  0.6944475790E+02 -0.1166116976E-14 -0.4636899419E-13  0.2000000000E+00  0.1013250000E+06
 -0.3333300000E+00  0.0000000000E+00  0.1757292340E-02  0.6944475790E+02 -0.2296667133E-16 -0.1890861805E-13  0.2000000000E+00  0.1013250000E+06
 -0.2663859601E+00  0.0000000000E+00  0.1757292340E-02  0.6944475790E+02  0.1348879682E-14 -0.5619027575E-13  0.2000000000E+00  0.1013250000E+06
 -0.1994419203E+00  0.0000000000E+00  0.1757292340E-02  0.6944475790E+02  0.1165259101E-14  0.1952163466E-12  0.2000000000E+00  0.1013250000E+06
 -0.3333300000E+00 -0.5000000000E+00  0.1757292340E-02  0.6944475790E+02 -0.8476566076E-16  0.0000000000E+00  0.2000000000E+00  0.1013250000E+06
 -0.2663859601E+00 -0.5000000000E+00  0.1757292340E-02  0.6944475790E+02 -0.3867554111E-15 -0.4092180513E-12  0.2000000000E+00  0.1013250000E+06
 -0.1994419203E+00 -0.5000000000E+00  0.1757292340E-02  0.6944475790E+02 -0.5663313138E-15 -0.4836306232E-12  0.2000000000E+00  0.1013250000E+06
 -0.3333300000E+00 -0.1000000000E+01  0.1757292340E-02  0.6944475790E+02 -0.5899534896E-15 -0.2325983769E-12  0.2000000000E+00  0.1013250000E+06
 -0.2663859601E+00 -0.1000000000E+01  0.1757292340E-02  0.6944475790E+02 -0.1348879682E-14 -0.4467354291E-12  0.2000000000E+00  0.1013250000E+06
 -0.1994419203E+00 -0.1000000000E+01  0.1757292340E-02  0.6944475790E+02 -0.6744398410E-15  0.0000000000E+00  0.2000000000E+00  0.1013250000E+06
 -0.3333300000E+00  0.0000000000E+00  0.4663594900E-02  0.6944475790E+02  0.8680814237E-15  0.3068374468E-13  0.2000000000E+00  0.1013250000E+06
 -0.2663859601E+00  0.0000000000E+00  0.4663594900E-02  0.6944475790E+02 -0.2556392920E-15  0.9164095678E-13  0.2000000000E+00  0.1013250000E+06
 -0.1994419203E+00  0.0000000000E+00  0.4663594900E-02  0.6944475790E+02 -0.1210384551E-14  0.1111863895E-12  0.2000000000E+00  0.1013250000E+06
 -0.3333300000E+00 -0.5000000000E+00  0.4663594900E-02  0.6944475790E+02 -0.7754962474E-16  0.0000000000E+00  0.2000000000E+00  0.1013250000E+06
 -0.2663859601E+00 -0.5000000000E+00  0.4663594900E-02  0.6944475790E+02  0.1615197531E-15 -0.1918507819E-12  0.2000000000E+00  0.1013250000E+06
 -0.1994419203E+00 -0.5000000000E+00  0.4663594900E-02  0.6944475790E+02  0.2545608745E-15 -0.6965152150E-13  0.2000000000E+00  0.1013250000E+06
 -0.3333300000E+00 -0.1000000000E+01  0.4663594900E-02  0.6944475790E+02 -0.4432565253E-15 -0.5011476511E-13  0.2000000000E+00  0.1013250000E+06
 -0.2663859601E+00 -0.1000000000E+01  0.4663594900E-02  0.6944475790E+02  0.3028204086E-15 -0.1308647584E-12  0.2000000000E+00  0.1013250000E+06
 -0.1994419203E+00 -0.1000000000E+01  0.4663594900E-02  0.6944475790E+02 -0.2251944824E-14  0.0000000000E+00  0.2000000000E+00  0.1013250000E+06
 -0.3333300000E+00  0.0000000000E+00  0.3763175179E-02  0.6944475790E+02  0.4140115732E-15 -0.1553471623E-12  0.2000000000E+00  0.1013250000E+06
 -0.2663859601E+00  0.0000000000E+00  0.3763175179E-02  0.6944475790E+02 -0.4140115732E-15 -0.1059869627E-12  0.2000000000E+00  0.1013250000E+06
 -0.1994419203E+00  0.0000000000E+00  0.3763175179E-02  0.6944475790E+02  0.0000000000E+00 -0.4455492222E-13  0.2000000000E+00  0.1013250000E+06
 -0.3333300000E+00 -0.5000000000E+00  0.3763175179E-02  0.6944475790E+02 -0.1310108590E-15 -0.1396275090E-12  0.2000000000E+00  0.1013250000E+06
 -0.2663859601E+00 -0.5000000000E+00  0.3763175179E-02  0.6944475790E+02 -0.6973006211E-16 -0.1059869627E-12  0.2000000000E+00  0.1013250000E+06
 -0.1994419203E+00 -0.5000000000E+00  0.3763175179E-02  0.6944475790E+02 -0.1736842329E-15 -0.1083082896E-13  0.2000000000E+00  0.1013250000E+06
 -0.3333300000E+00 -0.1000000000E+01  0.3763175179E-02  0.6944475790E+02  0.2898081013E-14 -0.1239078557E-12  0.2000000000E+00  0.1013250000E+06
 -0.2663859601E+00 -0.1000000000E+01  0.3763175179E-02  0.6944475790E+02  0.0000000000E+00 -0.1059869627E-12  0.2000000000E+00  0.1013250000E+06
 -0.1994419203E+00 -0.1000000000E+01  0.3763175179E-02  0.6944475790E+02 -0.6002351725E-14 -0.2846406613E-13  0.2000000000E+00  0.1013250000E+06
 -0.3333300000E+00  0.0000000000E+00  0.2862755459E-02  0.6944475790E+02 -0.1325386605E-15 -0.1891309580E-13  0.2000000000E+00  0.1013250000E+06
 -0.2663859601E+00  0.0000000000E+00  0.2862755459E-02  0.6944475790E+02  0.5496176115E-15 -0.5622106506E-13  0.2000000000E+00  0.1013250000E+06
 -0.1994419203E+00  0.0000000000E+00  0.2862755459E-02  0.6944475790E+02 -0.2754780708E-15  0.1125936412E-12  0.2000000000E+00  0.1013250000E+06
 -0.3333300000E+00 -0.5000000000E+00  0.2862755459E-02  0.6944475790E+02  0.2124864301E-15  0.0000000000E+00  0.2000000000E+00  0.1013250000E+06
 -0.2663859601E+00 -0.5000000000E+00  0.2862755459E-02  0.6944475790E+02  0.2969244133E-15 -0.2439102021E-12  0.2000000000E+00  0.1013250000E+06
 -0.1994419203E+00 -0.5000000000E+00  0.2862755459E-02  0.6944475790E+02  0.1441555256E-15 -0.3188066846E-12  0.2000000000E+00  0.1013250000E+06
 -0.3333300000E+00 -0.1000000000E+01  0.2862755459E-02  0.6944475790E+02  0.1876033607E-14 -0.1501095261E-12  0.2000000000E+00  0.1013250000E+06
 -0.2663859601E+00 -0.1000000000E+01  0.2862755459E-02  0.6944475790E+02 -0.5339414564E-15 -0.2814395467E-12  0.2000000000E+00  0.1013250000E+06
 -0.1994419203E+00 -0.1000000000E+01  0.2862755459E-02  0.6944475790E+02 -0.3730889644E-14  0.0000000000E+00  0.2000000000E+00  0.1013250000E+06
 -0.3333300000E+00  0.0000000000E+00  0.1757292340E-02  0.6944475790E+02  0.5422814685E-16  0.3080239952E-13  0.2000000000E+00  0.1013250000E+06
 -0.2663859601E+00  0.0000000000E+00  0.1757292340E-02  0.6944475790E+02  0.1360977871E-14  0.9153473395E-13  0.2000000000E+00  0.1013250000E+06
 -0.1994419203E+00  0.0000000000E+00  0.1757292340E-02  0.6944475790E+02  0.1130421582E-14  0.2445098414E-12  0.2000000000E+00  0.1013250000E+06
 -0.3333300000E+00 -0.5000000000E+00  0.1757292340E-02  0.6944475790E+02 -0.7205504382E-16  0.0000000000E+00  0.2000000000E+00  0.1013250000E+06
 -0.2663859601E+00 -0.5000000000E+00  0.1757292340E-02  0.6944475790E+02 -0.3782705601E-15 -0.4584180754E-12  0.2000000000E+00  0.1013250000E+06
 -0.1994419203E+00 -0.5000000000E+00  0.1757292340E-02  0.6944475790E+02 -0.5723478679E-15 -0.3371989698E-12  0.2000000000E+00  0.1013250000E+06
 -0.3333300000E+00 -0.1000000000E+01  0.1757292340E-02  0.6944475790E+02 -0.8158650734E-15 -0.1836139987E-12  0.2000000000E+00  0.1013250000E+06
 -0.2663859601E+00 -0.1000000000E+01  0.1757292340E-02  0.6944475790E+02 -0.1381413243E-14 -0.3973017497E-12  0.2000000000E+00  0.1013250000E+06
 -0.1994419203E+00 -0.1000000000E+01  0.1757292340E-02  0.6944475790E+02 -0.6522934936E-15  0.0000000000E+00  0.2000000000E+00  0.1013250000E+06
 -0.3333300000E+00  0.0000000000E+00  0.1417987932E-02  0.6944475790E+02 -0.1098671800E-14 -0.4122482498E-12  0.2000000000E+00  0.1013250000E+06
 -0.2663859601E+00  0.0000000000E+00  0.1417987932E-02  0.6944475790E+02 -0.5493359001E-15 -0.2812599809E-12  0.2000000000E+00  0.1013250000E+06
 -0.1994419203E+00  0.0000000000E+00  0.1417987932E-02  0.6944475790E+02  0.0000000000E+00 -0.1182363967E-12  0.2000000000E+00  0.1013250000E+06
 -0.3333300000E+00 -0.5000000000E+00  0.1417987932E-02  0.6944475790E+02  0.3008757249E-15 -0.3705326531E-12  0.2000000000E+00  0.1013250000E+06
 -0.2663859601E+00 -0.5000000000E+00  0.1417987932E-02  0.6944475790E+02 -0.7108432311E-19 -0.2812599809E-12  0.2000000000E+00  0.1013250000E+06
 -0.1994419203E+00 -0.5000000000E+00  0.1417987932E-02  0.6944475790E+02 -0.2976572605E-15 -0.2874201379E-13  0.2000000000E+00  0.1013250000E+06
 -0.3333300000E+00 -0.1000000000E+01  0.1417987932E-02  0.6944475790E+02 -0.5493359001E-15 -0.3288170564E-12  0.2000000000E+00  0.1013250000E+06
 -0.2663859601E+00 -0.1000000000E+01  0.1417987932E-02  0.6944475790E+02 -0.1098671800E-14 -0.2812599809E-12  0.2000000000E+00  0.1013250000E+06
 -0.1994419203E+00 -0.1000000000E+01  0.1417987932E-02  0.6944475790E+02 -0.1648007700E-14 -0.7553573087E-13  0.2000000000E+00  0.1013250000E+06
 -0.3333300000E+00  0.0000000000E+00  0.1078683524E-02  0.6944475790E+02 -0.6070357177E-15 -0.1898662892E-13  0.2000000000E+00  0.1013250000E+06
 -0.2663859601E+00  0.0000000000E+00  0.1078683524E-02  0.6944475790E+02  0.0000000000E+00 -0.5608791818E-13  0.2000000000E+00  0.1013250000E+06
 -0.1994419203E+00  0.0000000000E+00  0.1078683524E-02  0.6944475790E+02 -0.8827274989E-15  0.3296165452E-12  0.2000000000E+00  0.1013250000E+06
 -0.3333300000E+00 -0.5000000000E+00  0.1078683524E-02  0.6944475790E+02  0.3395629284E-15  0.0000000000E+00  0.2000000000E+00  0.1013250000E+06
 -0.2663859601E+00 -0.5000000000E+00  0.1078683524E-02  0.6944475790E+02  0.2126762121E-15 -0.6778400619E-12  0.2000000000E+00  0.1013250000E+06
 -0.1994419203E+00 -0.5000000000E+00  0.1078683524E-02  0.6944475790E+02  0.1704785236E-16 -0.7528110688E-12  0.2000000000E+00  0.1013250000E+06
 -0.3333300000E+00 -0.1000000000E+01  0.1078683524E-02  0.6944475790E+02  0.1708594310E-14 -0.3673190116E-12  0.2000000000E+00  0.1013250000E+06
 -0.2663859601E+00 -0.1000000000E+01  0.1078683524E-02  0.6944475790E+02 -0.5688484693E-15 -0.7158119530E-12  0.2000000000E+00  0.1013250000E+06
 -0.1994419203E+00 -0.1000000000E+01  0.1078683524E-02  0.6944475790E+02 -0.2068523424E-14  0.0000000000E+00  0.2000000000E+00  0.1013250000E+06
 -0.3333300000E+00  0.0000000000E+00  0.1078683524E-02  0.6944475790E+02 -0.4769063315E-15  0.3092835101E-13  0.2000000000E+00  0.1013250000E+06
 -0.2663859601E+00  0.0000000000E+00  0.1078683524E-02  0.6944475790E+02  0.3611141129E-16  0.9136465607E-13  0.2000000000E+00  0.1013250000E+06
 -0.1994419203E+00  0.0000000000E+00  0.1078683524E-02  0.6944475790E+02 -0.8948430822E-15  0.3793890241E-12  0.2000000000E+00  0.1013250000E+06
 -0.3333300000E+00 -0.5000000000E+00  0.1078683524E-02  0.6944475790E+02  0.3115749808E-15  0.0000000000E+00  0.2000000000E+00  0.1013250000E+06
 -0.2663859601E+00 -0.5000000000E+00  0.1078683524E-02  0.6944475790E+02  0.2020305819E-15 -0.7284681419E-12  0.2000000000E+00  0.1013250000E+06
 -0.1994419203E+00 -0.5000000000E+00  0.1078683524E-02  0.6944475790E+02  0.2351902722E-16 -0.6063437971E-12  0.2000000000E+00  0.1013250000E+06
 -0.3333300000E+00 -0.1000000000E+01  0.1078683524E-02  0.6944475790E+02  0.1928854656E-14 -0.3179734291E-12  0.2000000000E+00  0.1013250000E+06
 -0.2663859601E+00 -0.1000000000E+01  0.1078683524E-02  0.6944475790E+02 -0.5255073689E-15 -0.6666136663E-12  0.2000000000E+00  0.1013250000E+06
 -0.1994419203E+00 -0.1000000000E+01  0.1078683524E-02  0.6944475790E+02 -0.2453452402E-14  0.0000000000E+00  0.2000000000E+00  0.1013250000E+06
 -0.3333300000E+00  0.0000000000E+00  0.8703876824E-03  0.6944475790E+02 -0.4474215411E-15 -0.6715335635E-12  0.2000000000E+00  0.1013250000E+06
 -0.2663859601E+00  0.0000000000E+00  0.8703876824E-03  0.6944475790E+02 -0.4474215411E-15 -0.4581596581E-12  0.2000000000E+00  0.1013250000E+06
 -0.1994419203E+00  0.0000000000E+00  0.8703876824E-03  0.6944475790E+02 -0.1355471204E-14 -0.1926016880E-12  0.2000000000E+00  0.1013250000E+06
 -0.3333300000E+00 -0.5000000000E+00  0.8703876824E-03  0.6944475790E+02  0.3453708757E-16 -0.6035807624E-12  0.2000000000E+00  0.1013250000E+06
 -0.2663859601E+00 -0.5000000000E+00  0.8703876824E-03  0.6944475790E+02  0.1741053783E-15 -0.4581596581E-12  0.2000000000E+00  0.1013250000E+06
 -0.1994419203E+00 -0.5000000000E+00  0.8703876824E-03  0.6944475790E+02  0.2243322998E-15 -0.4681942725E-13  0.2000000000E+00  0.1013250000E+06
 -0.3333300000E+00 -0.1000000000E+01  0.8703876824E-03  0.6944475790E+02  0.5369058493E-14 -0.5356279613E-12  0.2000000000E+00  0.1013250000E+06
 -0.2663859601E+00 -0.1000000000E+01  0.8703876824E-03  0.6944475790E+02  0.0000000000E+00 -0.4581596581E-12  0.2000000000E+00  0.1013250000E+06
 -0.1994419203E+00 -0.1000000000E+01  0.8703876824E-03  0.6944475790E+02 -0.6754957033E-14 -0.1230442544E-12  0.2000000000E+00  0.1013250000E+06
 -0.3333300000E+00  0.0000000000E+00  0.6620918412E-03  0.6944475790E+02 -0.4474215411E-15 -0.1879306285E-13  0.2000000000E+00  0.1013250000E+06
 -0.2663859601E+00  0.0000000000E+00  0.6620918412E-03  0.6944475790E+02 -0.9068109222E-15 -0.5673639039E-13  0.2000000000E+00  0.1013250000E+06
 -0.1994419203E+00  0.0000000000E+00  0.6620918412E-03  0.6944475790E+02 -0.5911451915E-15  0.5490592033E-12  0.2000000000E+00  0.1013250000E+06
 -0.3333300000E+00 -0.5000000000E+00  0.6620918412E-03  0.6944475790E+02 -0.1107651446E-15  0.0000000000E+00  0.2000000000E+00  0.1013250000E+06
 -0.2663859601E+00 -0.5000000000E+00  0.6620918412E-03  0.6944475790E+02  0.6817761753E-17 -0.1116889097E-11  0.2000000000E+00  0.1013250000E+06
 -0.1994419203E+00 -0.5000000000E+00  0.6620918412E-03  0.6944475790E+02  0.8406343770E-16 -0.1190305268E-11  0.2000000000E+00  0.1013250000E+06
 -0.3333300000E+00 -0.1000000000E+01  0.6620918412E-03  0.6944475790E+02  0.4943616702E-14 -0.5862506995E-12  0.2000000000E+00  0.1013250000E+06
 -0.2663859601E+00 -0.1000000000E+01  0.6620918412E-03  0.6944475790E+02  0.1795143527E-14 -0.1153801863E-11  0.2000000000E+00  0.1013250000E+06
 -0.1994419203E+00 -0.1000000000E+01  0.6620918412E-03  0.6944475790E+02 -0.6101060376E-14  0.0000000000E+00  0.2000000000E+00  0.1013250000E+06
 -0.3333300000E+00  0.0000000000E+00  0.6620918412E-03  0.6944475790E+02 -0.4339229434E-15  0.3061007501E-13  0.2000000000E+00  0.1013250000E+06
 -0.2663859601E+00  0.0000000000E+00  0.6620918412E-03  0.6944475790E+02 -0.8789337625E-15  0.9241203417E-13  0.2000000000E+00  0.1013250000E+06
 -0.1994419203E+00  0.0000000000E+00  0.6620918412E-03  0.6944475790E+02 -0.4636504565E-15  0.5981919870E-12  0.2000000000E+00  0.1013250000E+06
 -0.3333300000E+00 -0.5000000000E+00  0.6620918412E-03  0.6944475790E+02 -0.1297411497E-15  0.0000000000E+00  0.2000000000E+00  0.1013250000E+06
 -0.2663859601E+00 -0.5000000000E+00  0.6620918412E-03  0.6944475790E+02 -0.1310974879E-16 -0.1165810339E-11  0.2000000000E+00  0.1013250000E+06
 -0.1994419203E+00 -0.5000000000E+00  0.6620918412E-03  0.6944475790E+02  0.6495590009E-16 -0.1046230337E-11  0.2000000000E+00  0.1013250000E+06
 -0.3333300000E+00 -0.1000000000E+01  0.6620918412E-03  0.6944475790E+02  0.4847159606E-14 -0.5376146081E-12  0.2000000000E+00  0.1013250000E+06
 -0.2663859601E+00 -0.1000000000E+01  0.6620918412E-03  0.6944475790E+02  0.1756897588E-14 -0.1105686955E-11  0.2000000000E+00  0.1013250000E+06
 -0.1994419203E+00 -0.1000000000E+01  0.6620918412E-03  0.6944475790E+02 -0.6049826715E-14  0.0000000000E+00  0.2000000000E+00  0.1013250000E+06
 -0.3333300000E+00  0.0000000000E+00  0.5342085599E-03  0.6944475790E+02 -0.5221675785E-15 -0.1093791519E-11  0.2000000000E+00  0.1013250000E+06
 -0.2663859601E+00  0.0000000000E+00  0.5342085599E-03  0.6944475790E+02  0.1093137961E-14 -0.7462488482E-12  0.2000000000E+00  0.1013250000E+06
 -0.1994419203E+00  0.0000000000E+00  0.5342085599E-03  0.6944475790E+02  0.4074567031E-15 -0.3137649161E-12  0.2000000000E+00  0.1013250000E+06
 -0.3333300000E+00 -0.5000000000E+00  0.5342085599E-03  0.6944475790E+02 -0.3037262592E-15 -0.9831102341E-12  0.2000000000E+00  0.1013250000E+06
 -0.2663859601E+00 -0.5000000000E+00  0.5342085599E-03  0.6944475790E+02 -0.2822123422E-15 -0.7462488482E-12  0.2000000000E+00  0.1013250000E+06
 -0.1994419203E+00 -0.5000000000E+00  0.5342085599E-03  0.6944475790E+02 -0.6138665062E-16 -0.7655931087E-13  0.2000000000E+00  0.1013250000E+06
 -0.3333300000E+00 -0.1000000000E+01  0.5342085599E-03  0.6944475790E+02  0.1485595565E-14 -0.8724289494E-12  0.2000000000E+00  0.1013250000E+06
 -0.2663859601E+00 -0.1000000000E+01  0.5342085599E-03  0.6944475790E+02 -0.7287586408E-15 -0.7462488482E-12  0.2000000000E+00  0.1013250000E+06
 -0.1994419203E+00 -0.1000000000E+01  0.5342085599E-03  0.6944475790E+02 -0.4008172524E-14 -0.2018059918E-12  0.2000000000E+00  0.1013250000E+06
 -0.3333300000E+00  0.0000000000E+00  0.4063252786E-03  0.6944475790E+02 -0.1351888002E-14 -0.4167806290E-12  0.2000000000E+00  0.1013250000E+06
 -0.2663859601E+00  0.0000000000E+00  0.4063252786E-03  0.6944475790E+02  0.4566622571E-17 -0.1689271878E-12  0.2000000000E+00  0.1013250000E+06
 -0.1994419203E+00  0.0000000000E+00  0.4063252786E-03  0.6944475790E+02  0.2198981352E-15  0.6361780846E-12  0.2000000000E+00  0.1013250000E+06
 -0.3333300000E+00 -0.5000000000E+00  0.4063252786E-03  0.6944475790E+02  0.2818889709E-15 -0.2890303873E-12  0.2000000000E+00  0.1013250000E+06
 -0.2663859601E+00 -0.5000000000E+00  0.4063252786E-03  0.6944475790E+02  0.1039971044E-15 -0.1830547581E-11  0.2000000000E+00  0.1013250000E+06
 -0.1994419203E+00 -0.5000000000E+00  0.4063252786E-03  0.6944475790E+02 -0.3124791806E-17 -0.5521458326E-12  0.2000000000E+00  0.1013250000E+06
 -0.3333300000E+00 -0.1000000000E+01  0.4063252786E-03  0.6944475790E+02  0.2027792314E-14 -0.9433877125E-12  0.2000000000E+00  0.1013250000E+06
 -0.2663859601E+00 -0.1000000000E+01  0.4063252786E-03  0.6944475790E+02 -0.2297859049E-15 -0.1644787299E-11  0.2000000000E+00  0.1013250000E+06
 -0.1994419203E+00 -0.1000000000E+01  0.4063252786E-03  0.6944475790E+02 -0.2392864065E-14  0.3769335295E-12  0.2000000000E+00  0.1013250000E+06
 -0.3333300000E+00  0.0000000000E+00  0.4063252786E-03  0.6944475790E+02 -0.1358698888E-14 -0.4661148567E-12  0.2000000000E+00  0.1013250000E+06
 -0.2663859601E+00  0.0000000000E+00  0.4063252786E-03  0.6944475790E+02  0.1720607334E-16  0.7320790633E-13  0.2000000000E+00  0.1013250000E+06
 -0.1994419203E+00  0.0000000000E+00  0.4063252786E-03  0.6944475790E+02  0.1976198446E-15  0.5898503607E-12  0.2000000000E+00  0.1013250000E+06
 -0.3333300000E+00 -0.5000000000E+00  0.4063252786E-03  0.6944475790E+02  0.3001858253E-15 -0.3387713235E-12  0.2000000000E+00  0.1013250000E+06
 -0.2663859601E+00 -0.5000000000E+00  0.4063252786E-03  0.6944475790E+02  0.1149253509E-15 -0.1879877356E-11  0.2000000000E+00  0.1013250000E+06
 -0.1994419203E+00 -0.5000000000E+00  0.4063252786E-03  0.6944475790E+02 -0.3482121995E-17 -0.4957937542E-12  0.2000000000E+00  0.1013250000E+06
 -0.3333300000E+00 -0.1000000000E+01  0.4063252786E-03  0.6944475790E+02  0.1997174336E-14 -0.8941585873E-12  0.2000000000E+00  0.1013250000E+06
 -0.2663859601E+00 -0.1000000000E+01  0.4063252786E-03  0.6944475790E+02 -0.2438112103E-15 -0.1595388410E-11  0.2000000000E+00  0.1013250000E+06
 -0.1994419203E+00 -0.1000000000E+01  0.4063252786E-03  0.6944475790E+02 -0.2291932141E-14  0.3291315667E-12  0.2000000000E+00  0.1013250000E+06
 -0.3333300000E+00  0.0000000000E+00  0.3277911265E-03  0.6944475790E+02 -0.1780041747E-14 -0.1638786425E-11  0.2000000000E+00  0.1013250000E+06
 -0.2663859601E+00  0.0000000000E+00  0.3277911265E-03  0.6944475790E+02 -0.5933472491E-15 -0.1135545296E-11  0.2000000000E+00  0.1013250000E+06
 -0.1994419203E+00  0.0000000000E+00  0.3277911265E-03  0.6944475790E+02  0.0000000000E+00 -0.4318919346E-12  0.2000000000E+00  0.1013250000E+06
 -0.3333300000E+00 -0.5000000000E+00  0.3277911265E-03  0.6944475790E+02  0.5873694221E-15 -0.1500087290E-11  0.2000000000E+00  0.1013250000E+06
 -0.2663859601E+00 -0.5000000000E+00  0.3277911265E-03  0.6944475790E+02  0.7279415564E-16 -0.2027230021E-11  0.2000000000E+00  0.1013250000E+06
 -0.1994419203E+00 -0.5000000000E+00  0.3277911265E-03  0.6944475790E+02 -0.3937610340E-15 -0.7964339944E-12  0.2000000000E+00  0.1013250000E+06
 -0.3333300000E+00 -0.1000000000E+01  0.3277911265E-03  0.6944475790E+02  0.0000000000E+00 -0.1420644060E-11  0.2000000000E+00  0.1013250000E+06
 -0.2663859601E+00 -0.1000000000E+01  0.3277911265E-03  0.6944475790E+02  0.0000000000E+00 -0.1495297447E-11  0.2000000000E+00  0.1013250000E+06
 -0.1994419203E+00 -0.1000000000E+01  0.3277911265E-03  0.6944475790E+02  0.1780041747E-14 -0.3460331206E-12  0.2000000000E+00  0.1013250000E+06
 -0.3333300000E+00  0.0000000000E+00  0.2492569744E-03  0.6944475790E+02  0.7592225975E-15 -0.2294979876E-11  0.2000000000E+00  0.1013250000E+06
 -0.2663859601E+00  0.0000000000E+00  0.2492569744E-03  0.6944475790E+02  0.3671041575E-15 -0.6904957262E-12  0.2000000000E+00  0.1013250000E+06
 -0.1994419203E+00  0.0000000000E+00  0.2492569744E-03  0.6944475790E+02 -0.1059218658E-15 -0.7504057602E-12  0.2000000000E+00  0.1013250000E+06
 -0.3333300000E+00 -0.5000000000E+00  0.2492569744E-03  0.6944475790E+02  0.1304316365E-16 -0.2417974488E-11  0.2000000000E+00  0.1013250000E+06
 -0.2663859601E+00 -0.5000000000E+00  0.2492569744E-03  0.6944475790E+02 -0.1708799086E-15 -0.2388526265E-11  0.2000000000E+00  0.1013250000E+06
 -0.1994419203E+00 -0.5000000000E+00  0.2492569744E-03  0.6944475790E+02 -0.2799068764E-15 -0.4231590220E-12  0.2000000000E+00  0.1013250000E+06
 -0.3333300000E+00 -0.1000000000E+01  0.2492569744E-03  0.6944475790E+02 -0.6161125930E-15 -0.2043366556E-11  0.2000000000E+00  0.1013250000E+06
 -0.2663859601E+00 -0.1000000000E+01  0.2492569744E-03  0.6944475790E+02 -0.6034457434E-15 -0.2222570925E-11  0.2000000000E+00  0.1013250000E+06
 -0.1994419203E+00 -0.1000000000E+01  0.2492569744E-03  0.6944475790E+02 -0.1663446369E-14 -0.3158485289E-12  0.2000000000E+00  0.1013250000E+06
 -0.3333300000E+00  0.0000000000E+00  0.2492569744E-03  0.6944475790E+02  0.7657945110E-15 -0.2345774798E-11  0.2000000000E+00  0.1013250000E+06
 -0.2663859601E+00  0.0000000000E+00  0.2492569744E-03  0.6944475790E+02  0.3689219081E-15 -0.5452220171E-12  0.2000000000E+00  0.1013250000E+06
 -0.1994419203E+00  0.0000000000E+00  0.2492569744E-03  0.6944475790E+02 -0.8270493267E-16 -0.7997127615E-12  0.2000000000E+00  0.1013250000E+06
 -0.3333300000E+00 -0.5000000000E+00  0.2492569744E-03  0.6944475790E+02  0.5372203479E-17 -0.2463846804E-11  0.2000000000E+00  0.1013250000E+06
 -0.2663859601E+00 -0.5000000000E+00  0.2492569744E-03  0.6944475790E+02 -0.1662984573E-15 -0.2434985951E-11  0.2000000000E+00  0.1013250000E+06
 -0.1994419203E+00 -0.5000000000E+00  0.2492569744E-03  0.6944475790E+02 -0.2709902978E-15 -0.2844529524E-12  0.2000000000E+00  0.1013250000E+06
 -0.3333300000E+00 -0.1000000000E+01  0.2492569744E-03  0.6944475790E+02 -0.5795303599E-15 -0.2091085573E-11  0.2000000000E+00  0.1013250000E+06
 -0.2663859601E+00 -0.1000000000E+01  0.2492569744E-03  0.6944475790E+02 -0.5862400152E-15 -0.2077845216E-11  0.2000000000E+00  0.1013250000E+06
 -0.1994419203E+00 -0.1000000000E+01  0.2492569744E-03  0.6944475790E+02 -0.1714678695E-14 -0.3648800089E-12  0.2000000000E+00  0.1013250000E+06
 -0.3333300000E+00  0.0000000000E+00  0.2009956487E-03  0.6944475790E+02  0.0000000000E+00 -0.1436073809E-11  0.2000000000E+00  0.1013250000E+06
 -0.2663859601E+00  0.0000000000E+00  0.2009956487E-03  0.6944475790E+02 -0.4827677485E-15 -0.1513133449E-12  0.2000000000E+00  0.1013250000E+06
 -0.1994419203E+00  0.0000000000E+00  0.2009956487E-03  0.6944475790E+02 -0.4827677485E-15 -0.1913028089E-12  0.2000000000E+00  0.1013250000E+06
 -0.3333300000E+00 -0.5000000000E+00  0.2009956487E-03  0.6944475790E+02 -0.2403906972E-15 -0.1311889682E-11  0.2000000000E+00  0.1013250000E+06
 -0.2663859601E+00 -0.5000000000E+00  0.2009956487E-03  0.6944475790E+02  0.1354519828E-15 -0.1664931081E-11  0.2000000000E+00  0.1013250000E+06
 -0.1994419203E+00 -0.5000000000E+00  0.2009956487E-03  0.6944475790E+02  0.5112080187E-15  0.1298050636E-12  0.2000000000E+00  0.1013250000E+06
 -0.3333300000E+00 -0.1000000000E+01  0.2009956487E-03  0.6944475790E+02  0.3378151299E-14 -0.1307811395E-11  0.2000000000E+00  0.1013250000E+06