TITLE = "Generated from MESH/FlatPlateSA_0000000000.hmesh and RESULTS/FlatPlateSA_0000000500.hsol"
VARIABLES = "x","y","z","u","v","w","Mach","p"
ZONE T="FLUID" N=22032 E=6528 ET=BRICK, F=FEPOINT
 -0.3333300000E+00  0.0000000000E+00  0.7597242754E-02  0.6944475790E+02  0.1137468541E-14  0.3058456831E-13  0.2000000000E+00  0.1013250000E+06
 -0.2663859601E+00  0.0000000000E+00  0.7597242754E-02  0.6944475790E+02  0.7472009417E-15  0.9174951088E-13  0.2000000000E+00  0.1013250000E+06
 -0.1994419203E+00  0.0000000000E+00  0.7597242754E-02  0.6944475790E+02 -0.2541584571E-15  0.5535809565E-13  0.2000000000E+00  0.1013250000E+06
 -0.3333300000E+00 -0.5000000000E+00  0.7597242754E-02  0.6944475790E+02 -0.1951030509E-15  0.0000000000E+00  0.2000000000E+00  0.1013250000E+06
 -0.2663859601E+00 -0.5000000000E+00  0.7597242754E-02  0.6944475790E+02 -0.1777221042E-15 -0.8007895707E-13  0.2000000000E+00  0.1013250000E+06
 -0.1994419203E+00 -0.5000000000E+00  0.7597242754E-02  0.6944475790E+02 -0.1415827756E-15  0.1737383818E-13  0.2000000000E+00  0.1013250000E+06
 -0.3333300000E+00 -0.1000000000E+01  0.7597242754E-02  0.6944475790E+02 -0.1755840963E-14  0.0000000000E+00  0.2000000000E+00  0.1013250000E+06
 -0.2663859601E+00 -0.1000000000E+01  0.7597242754E-02  0.6944475790E+02 -0.4027551157E-15 -0.1890113388E-13  0.2000000000E+00  0.1013250000E+06
 -0.1994419203E+00 -0.1000000000E+01  0.7597242754E-02  0.6944475790E+02 -0.7354928903E-17  0.0000000000E+00  0.2000000000E+00  0.1013250000E+06
 -0.3333300000E+00  0.0000000000E+00  0.6130418827E-02  0.6944475790E+02  0.2541584571E-15 -0.4823647541E-13  0.2000000000E+00  0.1013250000E+06
 -0.2663859601E+00  0.0000000000E+00  0.6130418827E-02  0.6944475790E+02  0.0000000000E+00 -0.3253228251E-13  0.2000000000E+00  0.1013250000E+06
 -0.1994419203E+00  0.0000000000E+00  0.6130418827E-02  0.6944475790E+02 -0.1270792285E-14 -0.1494056307E-13  0.2000000000E+00  0.1013250000E+06
 -0.3333300000E+00 -0.5000000000E+00  0.6130418827E-02  0.6944475790E+02 -0.1219692579E-15 -0.4335540350E-13  0.2000000000E+00  0.1013250000E+06
 -0.2663859601E+00 -0.5000000000E+00  0.6130418827E-02  0.6944475790E+02  0.3545638426E-16 -0.3253228251E-13  0.2000000000E+00  0.1013250000E+06
 -0.1994419203E+00 -0.5000000000E+00  0.6130418827E-02  0.6944475790E+02  0.1899136705E-15 -0.4415187953E-14  0.2000000000E+00  0.1013250000E+06
 -0.3333300000E+00 -0.1000000000E+01  0.6130418827E-02  0.6944475790E+02 -0.2033267657E-14 -0.3847433158E-13  0.2000000000E+00  0.1013250000E+06
 -0.2663859601E+00 -0.1000000000E+01  0.6130418827E-02  0.6944475790E+02  0.5083169141E-15 -0.3253228251E-13  0.2000000000E+00  0.1013250000E+06
 -0.1994419203E+00 -0.1000000000E+01  0.6130418827E-02  0.6944475790E+02  0.1270792285E-14 -0.9981600014E-14  0.2000000000E+00  0.1013250000E+06
 -0.3333300000E+00  0.0000000000E+00  0.4663594900E-02  0.6944475790E+02  0.3232811483E-15 -0.1883542278E-13  0.2000000000E+00  0.1013250000E+06
 -0.2663859601E+00  0.0000000000E+00  0.4663594900E-02  0.6944475790E+02 -0.3334775441E-15 -0.5625441699E-13  0.2000000000E+00  0.1013250000E+06
 -0.1994419203E+00  0.0000000000E+00  0.4663594900E-02  0.6944475790E+02 -0.8313584204E-15  0.2155108162E-13  0.2000000000E+00  0.1013250000E+06
 -0.3333300000E+00 -0.5000000000E+00  0.4663594900E-02  0.6944475790E+02  0.2301739305E-16  0.0000000000E+00  0.2000000000E+00  0.1013250000E+06
 -0.2663859601E+00 -0.5000000000E+00  0.4663594900E-02  0.6944475790E+02  0.1622207749E-15 -0.6179492497E-13  0.2000000000E+00  0.1013250000E+06
 -0.1994419203E+00 -0.5000000000E+00  0.4663594900E-02  0.6944475790E+02  0.2624574499E-15 -0.1366949965E-12  0.2000000000E+00  0.1013250000E+06
 -0.3333300000E+00 -0.1000000000E+01  0.4663594900E-02  0.6944475790E+02 -0.9016425893E-15 -0.5907934270E-13  0.2000000000E+00  0.1013250000E+06
 -0.2663859601E+00 -0.1000000000E+01  0.4663594900E-02  0.6944475790E+02  0.3072859090E-15 -0.9941376464E-13  0.2000000000E+00  0.1013250000E+06
 -0.1994419203E+00 -0.1000000000E+01  0.4663594900E-02  0.6944475790E+02  0.9755257732E-16  0.0000000000E+00  0.2000000000E+00  0.1013250000E+06
 -0.3333300000E+00  0.0000000000E+00  0.2862755459E-02  0.6944475790E+02 -0.3306406727E-15  0.3081011776E-13  0.2000000000E+00  0.1013250000E+06
 -0.2663859601E+00  0.0000000000E+00  0.2862755459E-02  0.6944475790E+02  0.1969456307E-15  0.9158615061E-13  0.2000000000E+00  0.1013250000E+06
 -0.1994419203E+00  0.0000000000E+00  0.2862755459E-02  0.6944475790E+02 -0.9760735843E-16  0.9624232187E-13  0.2000000000E+00  0.1013250000E+06
 -0.3333300000E+00 -0.5000000000E+00  0.2862755459E-02  0.6944475790E+02  0.1986735686E-15  0.0000000000E+00  0.2000000000E+00  0.1013250000E+06
 -0.2663859601E+00 -0.5000000000E+00  0.2862755459E-02  0.6944475790E+02  0.2141948790E-15 -0.1621915050E-12  0.2000000000E+00  0.1013250000E+06
 -0.1994419203E+00 -0.5000000000E+00  0.2862755459E-02  0.6944475790E+02  0.1285888381E-15 -0.4025148201E-13  0.2000000000E+00  0.1013250000E+06
 -0.3333300000E+00 -0.1000000000E+01  0.2862755459E-02  0.6944475790E+02  0.7669874181E-15 -0.3518513584E-13  0.2000000000E+00  0.1013250000E+06
 -0.2663859601E+00 -0.1000000000E+01  0.2862755459E-02  0.6944475790E+02 -0.2224826555E-15 -0.1009627660E-12  0.2000000000E+00  0.1013250000E+06
 -0.1994419203E+00 -0.1000000000E+01  0.2862755459E-02  0.6944475790E+02 -0.1404144771E-14  0.0000000000E+00  0.2000000000E+00  0.1013250000E+06
 -0.3333300000E+00  0.0000000000E+00  0.2310023899E-02  0.6944475790E+02 -0.6744787768E-15 -0.1280086420E-12  0.2000000000E+00  0.1013250000E+06
 -0.2663859601E+00  0.0000000000E+00  0.2310023899E-02  0.6944475790E+02 -0.6744787768E-15 -0.8633328343E-13  0.2000000000E+00  0.1013250000E+06
 -0.1994419203E+00  0.0000000000E+00  0.2310023899E-02  0.6944475790E+02  0.0000000000E+00 -0.3964885851E-13  0.2000000000E+00  0.1013250000E+06
 -0.3333300000E+00 -0.5000000000E+00  0.2310023899E-02  0.6944475790E+02  0.1847442150E-15 -0.1150553865E-12  0.2000000000E+00  0.1013250000E+06
 -0.2663859601E+00 -0.5000000000E+00  0.2310023899E-02  0.6944475790E+02  0.8918990585E-16 -0.8633328343E-13  0.2000000000E+00  0.1013250000E+06
 -0.1994419203E+00 -0.5000000000E+00  0.2310023899E-02  0.6944475790E+02  0.2207499146E-16 -0.1171690529E-13  0.2000000000E+00  0.1013250000E+06
 -0.3333300000E+00 -0.1000000000E+01  0.2310023899E-02  0.6944475790E+02 -0.6744787768E-15 -0.1021021311E-12  0.2000000000E+00  0.1013250000E+06
 -0.2663859601E+00 -0.1000000000E+01  0.2310023899E-02  0.6944475790E+02  0.3372393884E-15 -0.8633328343E-13  0.2000000000E+00  0.1013250000E+06
 -0.1994419203E+00 -0.1000000000E+01  0.2310023899E-02  0.6944475790E+02 -0.6744787768E-15 -0.2648889770E-13  0.2000000000E+00  0.1013250000E+06
 -0.3333300000E+00  0.0000000000E+00  0.1757292340E-02  0.6944475790E+02 -0.2296667133E-16 -0.1890861805E-13  0.2000000000E+00  0.1013250000E+06
 -0.2663859601E+00  0.0000000000E+00  0.1757292340E-02  0.6944475790E+02  0.6744787768E-15 -0.5619027604E-13  0.2000000000E+00  0.1013250000E+06
 -0.1994419203E+00  0.0000000000E+00  0.1757292340E-02  0.6944475790E+02  0.5541394629E-15  0.8808335698E-13  0.2000000000E+00  0.1013250000E+06
 -0.3333300000E+00 -0.5000000000E+00  0.1757292340E-02  0.6944475790E+02 -0.4533820479E-16  0.0000000000E+00  0.2000000000E+00  0.1013250000E+06
 -0.2663859601E+00 -0.5000000000E+00  0.1757292340E-02  0.6944475790E+02 -0.1950756707E-15 -0.1952283060E-12  0.2000000000E+00  0.1013250000E+06
 -0.1994419203E+00 -0.5000000000E+00  0.1757292340E-02  0.6944475790E+02 -0.2880377672E-15 -0.2703314637E-12  0.2000000000E+00  0.1013250000E+06
 -0.3333300000E+00 -0.1000000000E+01  0.1757292340E-02  0.6944475790E+02 -0.2527530371E-15 -0.1257416215E-12  0.2000000000E+00  0.1013250000E+06
 -0.2663859601E+00 -0.1000000000E+01  0.1757292340E-02  0.6944475790E+02 -0.6744787768E-15 -0.2327456838E-12  0.2000000000E+00  0.1013250000E+06
 -0.1994419203E+00 -0.1000000000E+01  0.1757292340E-02  0.6944475790E+02 -0.3372393884E-15  0.0000000000E+00  0.2000000000E+00  0.1013250000E+06
 -0.3333300000E+00  0.0000000000E+00  0.4663594900E-02  0.6944475790E+02  0.4540937516E-15  0.3068374468E-13  0.2000000000E+00  0.1013250000E+06
 -0.2663859601E+00  0.0000000000E+00  0.4663594900E-02  0.6944475790E+02 -0.4864545596E-16  0.9164095696E-13  0.2000000000E+00  0.1013250000E+06
 -0.1994419203E+00  0.0000000000E+00  0.4663594900E-02  0.6944475790E+02 -0.4891765898E-15  0.7088540726E-13  0.2000000000E+00  0.1013250000E+06
 -0.3333300000E+00 -0.5000000000E+00  0.4663594900E-02  0.6944475790E+02 -0.6431318735E-16  0.0000000000E+00  0.2000000000E+00  0.1013250000E+06
 -0.2663859601E+00 -0.5000000000E+00  0.4663594900E-02  0.6944475790E+02  0.4739147122E-16 -0.1113194710E-12  0.2000000000E+00  0.1013250000E+06
 -0.1994419203E+00 -0.5000000000E+00  0.4663594900E-02  0.6944475790E+02  0.7644405582E-16  0.1069608961E-13  0.2000000000E+00  0.1013250000E+06
 -0.3333300000E+00 -0.1000000000E+01  0.4663594900E-02  0.6944475790E+02  0.1788435653E-16 -0.9750194372E-14  0.2000000000E+00  0.1013250000E+06
 -0.2663859601E+00 -0.1000000000E+01  0.4663594900E-02  0.6944475790E+02  0.9582657257E-16 -0.5003670161E-13  0.2000000000E+00  0.1013250000E+06
 -0.1994419203E+00 -0.1000000000E+01  0.4663594900E-02  0.6944475790E+02 -0.1601501240E-14  0.0000000000E+00  0.2000000000E+00  0.1013250000E+06
 -0.3333300000E+00  0.0000000000E+00  0.3763175179E-02  0.6944475790E+02  0.2070177372E-15 -0.7857937214E-13  0.2000000000E+00  0.1013250000E+06
 -0.2663859601E+00  0.0000000000E+00  0.3763175179E-02  0.6944475790E+02 -0.2070177372E-15 -0.5299654072E-13  0.2000000000E+00  0.1013250000E+06
 -0.1994419203E+00  0.0000000000E+00  0.3763175179E-02  0.6944475790E+02  0.0000000000E+00 -0.2433884432E-13  0.2000000000E+00  0.1013250000E+06
 -0.3333300000E+00 -0.5000000000E+00  0.3763175179E-02  0.6944475790E+02 -0.6627559574E-16 -0.7062788805E-13  0.2000000000E+00  0.1013250000E+06
 -0.2663859601E+00 -0.5000000000E+00  0.3763175179E-02  0.6944475790E+02 -0.3487592138E-16 -0.5299654072E-13  0.2000000000E+00  0.1013250000E+06
 -0.1994419203E+00 -0.5000000000E+00  0.3763175179E-02  0.6944475790E+02 -0.8750998732E-16 -0.7192538308E-14  0.2000000000E+00  0.1013250000E+06
 -0.3333300000E+00 -0.1000000000E+01  0.3763175179E-02  0.6944475790E+02  0.1449124160E-14 -0.6267640396E-13  0.2000000000E+00  0.1013250000E+06
 -0.2663859601E+00 -0.1000000000E+01  0.3763175179E-02  0.6944475790E+02  0.0000000000E+00 -0.5299654072E-13  0.2000000000E+00  0.1013250000E+06
 -0.1994419203E+00 -0.1000000000E+01  0.3763175179E-02  0.6944475790E+02 -0.3105266058E-14 -0.1626047209E-13  0.2000000000E+00  0.1013250000E+06
 -0.3333300000E+00  0.0000000000E+00  0.2862755459E-02  0.6944475790E+02 -0.4050686927E-17 -0.1891309580E-13  0.2000000000E+00  0.1013250000E+06
 -0.2663859601E+00  0.0000000000E+00  0.2862755459E-02  0.6944475790E+02  0.2931384493E-15 -0.5622106524E-13  0.2000000000E+00  0.1013250000E+06
 -0.1994419203E+00  0.0000000000E+00  0.2862755459E-02  0.6944475790E+02 -0.1471004939E-15  0.4691377937E-13  0.2000000000E+00  0.1013250000E+06
 -0.3333300000E+00 -0.5000000000E+00  0.2862755459E-02  0.6944475790E+02  0.8665339172E-16  0.0000000000E+00  0.2000000000E+00  0.1013250000E+06
 -0.2663859601E+00 -0.5000000000E+00  0.2862755459E-02  0.6944475790E+02  0.1332576403E-15 -0.1124233018E-12  0.2000000000E+00  0.1013250000E+06
 -0.1994419203E+00 -0.5000000000E+00  0.2862755459E-02  0.6944475790E+02  0.6225066973E-16 -0.1872773922E-12  0.2000000000E+00  0.1013250000E+06
 -0.3333300000E+00 -0.1000000000E+01  0.2862755459E-02  0.6944475790E+02  0.9783013406E-15 -0.8439433748E-13  0.2000000000E+00  0.1013250000E+06
 -0.2663859601E+00 -0.1000000000E+01  0.2862755459E-02  0.6944475790E+02 -0.2774622938E-15 -0.1500091694E-12  0.2000000000E+00  0.1013250000E+06
 -0.1994419203E+00 -0.1000000000E+01  0.2862755459E-02  0.6944475790E+02 -0.2036300152E-14  0.0000000000E+00  0.2000000000E+00  0.1013250000E+06
 -0.3333300000E+00  0.0000000000E+00  0.1757292340E-02  0.6944475790E+02  0.5422814685E-16  0.3080239952E-13  0.2000000000E+00  0.1013250000E+06
 -0.2663859601E+00  0.0000000000E+00  0.1757292340E-02  0.6944475790E+02  0.6864689496E-15  0.9153473443E-13  0.2000000000E+00  0.1013250000E+06
 -0.1994419203E+00  0.0000000000E+00  0.1757292340E-02  0.6944475790E+02  0.5493676136E-15  0.1377872151E-12  0.2000000000E+00  0.1013250000E+06
 -0.3333300000E+00 -0.5000000000E+00  0.1757292340E-02  0.6944475790E+02 -0.3265329834E-16  0.0000000000E+00  0.2000000000E+00  0.1013250000E+06
 -0.2663859601E+00 -0.5000000000E+00  0.1757292340E-02  0.6944475790E+02 -0.1866208661E-15 -0.2445228341E-12  0.2000000000E+00  0.1013250000E+06
 -0.1994419203E+00 -0.5000000000E+00  0.1757292340E-02  0.6944475790E+02 -0.2940733030E-15 -0.1221787547E-12  0.2000000000E+00  0.1013250000E+06
 -0.3333300000E+00 -0.1000000000E+01  0.1757292340E-02  0.6944475790E+02 -0.4786106130E-15 -0.7644138302E-13  0.2000000000E+00  0.1013250000E+06
 -0.2663859601E+00 -0.1000000000E+01  0.1757292340E-02  0.6944475790E+02 -0.7071972845E-15 -0.1834065083E-12  0.2000000000E+00  0.1013250000E+06
 -0.1994419203E+00 -0.1000000000E+01  0.1757292340E-02  0.6944475790E+02 -0.3151122737E-15  0.0000000000E+00  0.2000000000E+00  0.1013250000E+06
 -0.3333300000E+00  0.0000000000E+00  0.1417987932E-02  0.6944475790E+02 -0.5493676136E-15 -0.2085278428E-12  0.2000000000E+00  0.1013250000E+06
 -0.2663859601E+00  0.0000000000E+00  0.1417987932E-02  0.6944475790E+02 -0.2746838068E-15 -0.1406381091E-12  0.2000000000E+00  0.1013250000E+06
 -0.1994419203E+00  0.0000000000E+00  0.1417987932E-02  0.6944475790E+02  0.0000000000E+00 -0.6458853720E-13  0.2000000000E+00  0.1013250000E+06
 -0.3333300000E+00 -0.5000000000E+00  0.1417987932E-02  0.6944475790E+02  0.1522266471E-15 -0.1874268110E-12  0.2000000000E+00  0.1013250000E+06
 -0.2663859601E+00 -0.5000000000E+00  0.1417987932E-02  0.6944475790E+02 -0.1579257525E-19 -0.1406381091E-12  0.2000000000E+00  0.1013250000E+06
 -0.1994419203E+00 -0.5000000000E+00  0.1417987932E-02  0.6944475790E+02 -0.1513739063E-15 -0.1908700027E-13  0.2000000000E+00  0.1013250000E+06
 -0.3333300000E+00 -0.1000000000E+01  0.1417987932E-02  0.6944475790E+02 -0.2746838068E-15 -0.1663257793E-12  0.2000000000E+00  0.1013250000E+06
 -0.2663859601E+00 -0.1000000000E+01  0.1417987932E-02  0.6944475790E+02 -0.5493676136E-15 -0.1406381091E-12  0.2000000000E+00  0.1013250000E+06
 -0.1994419203E+00 -0.1000000000E+01  0.1417987932E-02  0.6944475790E+02 -0.8240514204E-15 -0.4315077958E-13  0.2000000000E+00  0.1013250000E+06
 -0.3333300000E+00  0.0000000000E+00  0.1078683524E-02  0.6944475790E+02 -0.3323836244E-15 -0.1898662892E-13  0.2000000000E+00  0.1013250000E+06
 -0.2663859601E+00  0.0000000000E+00  0.1078683524E-02  0.6944475790E+02  0.0000000000E+00 -0.5608791866E-13  0.2000000000E+00  0.1013250000E+06
 -0.1994419203E+00  0.0000000000E+00  0.1078683524E-02  0.6944475790E+02 -0.4352826183E-15  0.1555454173E-12  0.2000000000E+00  0.1013250000E+06
 -0.3333300000E+00 -0.5000000000E+00  0.1078683524E-02  0.6944475790E+02  0.1833443942E-15  0.0000000000E+00  0.2000000000E+00  0.1013250000E+06
 -0.2663859601E+00 -0.5000000000E+00  0.1078683524E-02  0.6944475790E+02  0.1084012752E-15 -0.3295103109E-12  0.2000000000E+00  0.1013250000E+06
 -0.1994419203E+00 -0.5000000000E+00  0.1078683524E-02  0.6944475790E+02  0.8053888805E-17 -0.4037688349E-12  0.2000000000E+00  0.1013250000E+06
 -0.3333300000E+00 -0.1000000000E+01  0.1078683524E-02  0.6944475790E+02  0.8132467961E-15 -0.1930228888E-12  0.2000000000E+00  0.1013250000E+06
 -0.2663859601E+00 -0.1000000000E+01  0.1078683524E-02  0.6944475790E+02 -0.2941963760E-15 -0.3668822159E-12  0.2000000000E+00  0.1013250000E+06
 -0.1994419203E+00 -0.1000000000E+01  0.1078683524E-02  0.6944475790E+02 -0.9495358655E-15  0.0000000000E+00  0.2000000000E+00  0.1013250000E+06
 -0.3333300000E+00  0.0000000000E+00  0.1078683524E-02  0.6944475790E+02 -0.2019369276E-15  0.3092835101E-13  0.2000000000E+00  0.1013250000E+06
 -0.2663859601E+00  0.0000000000E+00  0.1078683524E-02  0.6944475790E+02  0.3611141129E-16  0.9136465685E-13  0.2000000000E+00  0.1013250000E+06
 -0.1994419203E+00  0.0000000000E+00  0.1078683524E-02  0.6944475790E+02 -0.4474473710E-15  0.2048097301E-12  0.2000000000E+00  0.1013250000E+06
 -0.3333300000E+00 -0.5000000000E+00  0.1078683524E-02  0.6944475790E+02  0.1553188329E-15  0.0000000000E+00  0.2000000000E+00  0.1013250000E+06
 -0.2663859601E+00 -0.5000000000E+00  0.1078683524E-02  0.6944475790E+02  0.9773985649E-16 -0.3796149747E-12  0.2000000000E+00  0.1013250000E+06
 -0.1994419203E+00 -0.5000000000E+00  0.1078683524E-02  0.6944475790E+02  0.1452395099E-16 -0.2586512319E-12  0.2000000000E+00  0.1013250000E+06
 -0.3333300000E+00 -0.1000000000E+01  0.1078683524E-02  0.6944475790E+02  0.1034063234E-14 -0.1437606412E-12  0.2000000000E+00  0.1013250000E+06
 -0.2663859601E+00 -0.1000000000E+01  0.1078683524E-02  0.6944475790E+02 -0.2506870968E-15 -0.3187378490E-12  0.2000000000E+00  0.1013250000E+06
 -0.1994419203E+00 -0.1000000000E+01  0.1078683524E-02  0.6944475790E+02 -0.1334963124E-14  0.0000000000E+00  0.2000000000E+00  0.1013250000E+06
 -0.3333300000E+00  0.0000000000E+00  0.8703876824E-03  0.6944475790E+02 -0.2237236855E-15 -0.3396823283E-12  0.2000000000E+00  0.1013250000E+06
 -0.2663859601E+00  0.0000000000E+00  0.8703876824E-03  0.6944475790E+02 -0.2237236855E-15 -0.2290930540E-12  0.2000000000E+00  0.1013250000E+06
 -0.1994419203E+00  0.0000000000E+00  0.8703876824E-03  0.6944475790E+02 -0.6843776368E-15 -0.1052117761E-12  0.2000000000E+00  0.1013250000E+06
 -0.3333300000E+00 -0.5000000000E+00  0.8703876824E-03  0.6944475790E+02  0.1744299942E-16 -0.3053097117E-12  0.2000000000E+00  0.1013250000E+06
 -0.2663859601E+00 -0.5000000000E+00  0.8703876824E-03  0.6944475790E+02  0.8710207029E-16 -0.2290930540E-12  0.2000000000E+00  0.1013250000E+06
 -0.1994419203E+00 -0.5000000000E+00  0.8703876824E-03  0.6944475790E+02  0.1160953049E-15 -0.3109185136E-13  0.2000000000E+00  0.1013250000E+06
 -0.3333300000E+00 -0.1000000000E+01  0.8703876824E-03  0.6944475790E+02  0.2684684226E-14 -0.2709370952E-12  0.2000000000E+00  0.1013250000E+06
 -0.2663859601E+00 -0.1000000000E+01  0.8703876824E-03  0.6944475790E+02  0.0000000000E+00 -0.2290930540E-12  0.2000000000E+00  0.1013250000E+06
 -0.1994419203E+00 -0.1000000000E+01  0.8703876824E-03  0.6944475790E+02 -0.3398907584E-14 -0.7029064839E-13  0.2000000000E+00  0.1013250000E+06
 -0.3333300000E+00  0.0000000000E+00  0.6620918412E-03  0.6944475790E+02 -0.2237236855E-15 -0.1879306285E-13  0.2000000000E+00  0.1013250000E+06
 -0.2663859601E+00  0.0000000000E+00  0.6620918412E-03  0.6944475790E+02 -0.4594152110E-15 -0.5673638961E-13  0.2000000000E+00  0.1013250000E+06
 -0.1994419203E+00  0.0000000000E+00  0.6620918412E-03  0.6944475790E+02 -0.3674473359E-15  0.2651082406E-12  0.2000000000E+00  0.1013250000E+06
 -0.3333300000E+00 -0.5000000000E+00  0.6620918412E-03  0.6944475790E+02 -0.5228541801E-16  0.0000000000E+00  0.2000000000E+00  0.1013250000E+06
 -0.2663859601E+00 -0.5000000000E+00  0.6620918412E-03  0.6944475790E+02  0.7401700296E-17 -0.5489871719E-12  0.2000000000E+00  0.1013250000E+06
 -0.1994419203E+00 -0.5000000000E+00  0.6620918412E-03  0.6944475790E+02  0.4481464329E-16 -0.6224644290E-12  0.2000000000E+00  0.1013250000E+06
 -0.3333300000E+00 -0.1000000000E+01  0.6620918412E-03  0.6944475790E+02  0.2596206012E-14 -0.3022997375E-12  0.2000000000E+00  0.1013250000E+06
 -0.2663859601E+00 -0.1000000000E+01  0.6620918412E-03  0.6944475790E+02  0.9003521047E-15 -0.5866329499E-12  0.2000000000E+00  0.1013250000E+06
 -0.1994419203E+00 -0.1000000000E+01  0.6620918412E-03  0.6944475790E+02 -0.3140866702E-14  0.0000000000E+00  0.2000000000E+00  0.1013250000E+06
 -0.3333300000E+00  0.0000000000E+00  0.6620918412E-03  0.6944475790E+02 -0.2101097944E-15  0.3061007501E-13  0.2000000000E+00  0.1013250000E+06
 -0.2663859601E+00  0.0000000000E+00  0.6620918412E-03  0.6944475790E+02 -0.4312224475E-15  0.9241203290E-13  0.2000000000E+00  0.1013250000E+06
 -0.1994419203E+00  0.0000000000E+00  0.6620918412E-03  0.6944475790E+02 -0.2400316317E-15  0.3144845548E-12  0.2000000000E+00  0.1013250000E+06
 -0.3333300000E+00 -0.5000000000E+00  0.6620918412E-03  0.6944475790E+02 -0.7130692647E-16  0.0000000000E+00  0.2000000000E+00  0.1013250000E+06
 -0.2663859601E+00 -0.5000000000E+00  0.6620918412E-03  0.6944475790E+02 -0.1258476416E-16 -0.5983954743E-12  0.2000000000E+00  0.1013250000E+06
 -0.1994419203E+00 -0.5000000000E+00  0.6620918412E-03  0.6944475790E+02  0.2567216579E-16 -0.4787159750E-12  0.2000000000E+00  0.1013250000E+06
 -0.3333300000E+00 -0.1000000000E+01  0.6620918412E-03  0.6944475790E+02  0.2490903212E-14 -0.2539071748E-12  0.2000000000E+00  0.1013250000E+06
 -0.2663859601E+00 -0.1000000000E+01  0.6620918412E-03  0.6944475790E+02  0.8618271718E-15 -0.5370781627E-12  0.2000000000E+00  0.1013250000E+06
 -0.1994419203E+00 -0.1000000000E+01  0.6620918412E-03  0.6944475790E+02 -0.3077221843E-14  0.0000000000E+00  0.2000000000E+00  0.1013250000E+06
 -0.3333300000E+00  0.0000000000E+00  0.5342085599E-03  0.6944475790E+02 -0.3399884362E-15 -0.5532733878E-12  0.2000000000E+00  0.1013250000E+06
 -0.2663859601E+00  0.0000000000E+00  0.5342085599E-03  0.6944475790E+02  0.5466005343E-15 -0.3731459648E-12  0.2000000000E+00  0.1013250000E+06
 -0.1994419203E+00  0.0000000000E+00  0.5342085599E-03  0.6944475790E+02  0.2252775608E-15 -0.1713685728E-12  0.2000000000E+00  0.1013250000E+06
 -0.3333300000E+00 -0.5000000000E+00  0.5342085599E-03  0.6944475790E+02 -0.1541180563E-15 -0.4972873902E-12  0.2000000000E+00  0.1013250000E+06
 -0.2663859601E+00 -0.5000000000E+00  0.5342085599E-03  0.6944475790E+02 -0.1415129775E-15 -0.3731459648E-12  0.2000000000E+00  0.1013250000E+06
 -0.1994419203E+00 -0.5000000000E+00  0.5342085599E-03  0.6944475790E+02 -0.3444363889E-16 -0.5064229872E-13  0.2000000000E+00  0.1013250000E+06
 -0.3333300000E+00 -0.1000000000E+01  0.5342085599E-03  0.6944475790E+02  0.7568789955E-15 -0.4413013927E-12  0.2000000000E+00  0.1013250000E+06
 -0.2663859601E+00 -0.1000000000E+01  0.5342085599E-03  0.6944475790E+02 -0.3644003562E-15 -0.3731459648E-12  0.2000000000E+00  0.1013250000E+06
 -0.1994419203E+00 -0.1000000000E+01  0.5342085599E-03  0.6944475790E+02 -0.2004201959E-14 -0.1144891622E-12  0.2000000000E+00  0.1013250000E+06
 -0.3333300000E+00  0.0000000000E+00  0.4063252786E-03  0.6944475790E+02 -0.6744244979E-15 -0.1969957351E-13  0.2000000000E+00  0.1013250000E+06
 -0.2663859601E+00  0.0000000000E+00  0.4063252786E-03  0.6944475790E+02  0.0000000000E+00 -0.5689685157E-13  0.2000000000E+00  0.1013250000E+06
 -0.1994419203E+00  0.0000000000E+00  0.4063252786E-03  0.6944475790E+02  0.1483723019E-16  0.4429605519E-12  0.2000000000E+00  0.1013250000E+06
 -0.3333300000E+00 -0.5000000000E+00  0.4063252786E-03  0.6944475790E+02  0.1362258901E-15  0.0000000000E+00  0.2000000000E+00  0.1013250000E+06
 -0.2663859601E+00 -0.5000000000E+00  0.4063252786E-03  0.6944475790E+02  0.4866821999E-16 -0.9058493940E-12  0.2000000000E+00  0.1013250000E+06
 -0.1994419203E+00 -0.5000000000E+00  0.4063252786E-03  0.6944475790E+02 -0.3817655081E-17 -0.9801699610E-12  0.2000000000E+00  0.1013250000E+06
 -0.3333300000E+00 -0.1000000000E+01  0.4063252786E-03  0.6944475790E+02  0.1027665269E-14 -0.4811878599E-12  0.2000000000E+00  0.1013250000E+06
 -0.2663859601E+00 -0.1000000000E+01  0.4063252786E-03  0.6944475790E+02 -0.1115759331E-15 -0.9427569756E-12  0.2000000000E+00  0.1013250000E+06
 -0.1994419203E+00 -0.1000000000E+01  0.4063252786E-03  0.6944475790E+02 -0.1173636182E-14  0.0000000000E+00  0.2000000000E+00  0.1013250000E+06
 -0.3333300000E+00  0.0000000000E+00  0.4063252786E-03  0.6944475790E+02 -0.6819265319E-15  0.3207835104E-13  0.2000000000E+00  0.1013250000E+06
 -0.2663859601E+00  0.0000000000E+00  0.4063252786E-03  0.6944475790E+02  0.0000000000E+00  0.9264957827E-13  0.2000000000E+00  0.1013250000E+06
 -0.1994419203E+00  0.0000000000E+00  0.4063252786E-03  0.6944475790E+02 -0.2416061841E-16  0.4939381255E-12  0.2000000000E+00  0.1013250000E+06
 -0.3333300000E+00 -0.5000000000E+00  0.4063252786E-03  0.6944475790E+02  0.1534716789E-15  0.0000000000E+00  0.2000000000E+00  0.1013250000E+06
 -0.2663859601E+00 -0.5000000000E+00  0.4063252786E-03  0.6944475790E+02  0.5625366702E-16 -0.9554254629E-12  0.2000000000E+00  0.1013250000E+06
 -0.1994419203E+00 -0.5000000000E+00  0.4063252786E-03  0.6944475790E+02 -0.6488996250E-17 -0.8344034907E-12  0.2000000000E+00  0.1013250000E+06
 -0.3333300000E+00 -0.1000000000E+01  0.4063252786E-03  0.6944475790E+02  0.9967893061E-15 -0.4316896202E-12  0.2000000000E+00  0.1013250000E+06
 -0.2663859601E+00 -0.1000000000E+01  0.4063252786E-03  0.6944475790E+02 -0.1150029629E-15 -0.8953259709E-12  0.2000000000E+00  0.1013250000E+06
 -0.1994419203E+00 -0.1000000000E+01  0.4063252786E-03  0.6944475790E+02 -0.1055784242E-14  0.0000000000E+00  0.2000000000E+00  0.1013250000E+06
 -0.3333300000E+00  0.0000000000E+00  0.3277911265E-03  0.6944475790E+02 -0.8900722551E-15 -0.9009381825E-12  0.2000000000E+00  0.1013250000E+06
 -0.2663859601E+00  0.0000000000E+00  0.3277911265E-03  0.6944475790E+02 -0.2966907517E-15 -0.6076226595E-12  0.2000000000E+00  0.1013250000E+06
 -0.1994419203E+00  0.0000000000E+00  0.3277911265E-03  0.6944475790E+02  0.0000000000E+00 -0.2806652397E-12  0.2000000000E+00  0.1013250000E+06
 -0.3333300000E+00 -0.5000000000E+00  0.3277911265E-03  0.6944475790E+02  0.2984384143E-15 -0.8097718188E-12  0.2000000000E+00  0.1013250000E+06
 -0.2663859601E+00 -0.5000000000E+00  0.3277911265E-03  0.6944475790E+02  0.3670945338E-16 -0.6076226595E-12  0.2000000000E+00  0.1013250000E+06
 -0.1994419203E+00 -0.5000000000E+00  0.3277911265E-03  0.6944475790E+02 -0.2001041549E-15 -0.8350796284E-13  0.2000000000E+00  0.1013250000E+06
 -0.3333300000E+00 -0.1000000000E+01  0.3277911265E-03  0.6944475790E+02  0.0000000000E+00 -0.7186054551E-12  0.2000000000E+00  0.1013250000E+06
 -0.2663859601E+00 -0.1000000000E+01  0.3277911265E-03  0.6944475790E+02  0.0000000000E+00 -0.6076226595E-12  0.2000000000E+00  0.1013250000E+06
 -0.1994419203E+00 -0.1000000000E+01  0.3277911265E-03  0.6944475790E+02  0.8900722551E-15 -0.1883687705E-12  0.2000000000E+00  0.1013250000E+06
 -0.3333300000E+00  0.0000000000E+00  0.2492569744E-03  0.6944475790E+02  0.4653348951E-15 -0.7243351260E-12  0.2000000000E+00  0.1013250000E+06
 -0.2663859601E+00  0.0000000000E+00  0.2492569744E-03  0.6944475790E+02  0.2988929703E-15 -0.5475248145E-13  0.2000000000E+00  0.1013250000E+06
 -0.1994419203E+00  0.0000000000E+00  0.2492569744E-03  0.6944475790E+02 -0.1235630062E-15  0.1987263870E-14  0.2000000000E+00  0.1013250000E+06
 -0.3333300000E+00 -0.5000000000E+00  0.2492569744E-03  0.6944475790E+02  0.1144352131E-16 -0.6153255140E-12  0.2000000000E+00  0.1013250000E+06
 -0.2663859601E+00 -0.5000000000E+00  0.2492569744E-03  0.6944475790E+02 -0.7925808163E-16 -0.1484650413E-11  0.2000000000E+00  0.1013250000E+06
 -0.1994419203E+00 -0.5000000000E+00  0.2492569744E-03  0.6944475790E+02 -0.1284628241E-15 -0.2515861578E-12  0.2000000000E+00  0.1013250000E+06
 -0.3333300000E+00 -0.1000000000E+01  0.2492569744E-03  0.6944475790E+02 -0.3239850533E-15 -0.7713944376E-12  0.2000000000E+00  0.1013250000E+06
 -0.2663859601E+00 -0.1000000000E+01  0.2492569744E-03  0.6944475790E+02 -0.3900508158E-15 -0.1240765798E-11  0.2000000000E+00  0.1013250000E+06
 -0.1994419203E+00 -0.1000000000E+01  0.2492569744E-03  0.6944475790E+02 -0.7734768770E-15  0.3271852609E-12  0.2000000000E+00  0.1013250000E+06
 -0.3333300000E+00  0.0000000000E+00  0.2492569744E-03  0.6944475790E+02  0.4751690208E-15 -0.7711828925E-12  0.2000000000E+00  0.1013250000E+06
 -0.2663859601E+00  0.0000000000E+00  0.2492569744E-03  0.6944475790E+02  0.2936145402E-15  0.8909700765E-13  0.2000000000E+00  0.1013250000E+06
 -0.1994419203E+00  0.0000000000E+00  0.2492569744E-03  0.6944475790E+02 -0.9874795476E-16 -0.4675595381E-13  0.2000000000E+00  0.1013250000E+06
 -0.3333300000E+00 -0.5000000000E+00  0.2492569744E-03  0.6944475790E+02  0.6577151735E-17 -0.6638422153E-12  0.2000000000E+00  0.1013250000E+06
 -0.2663859601E+00 -0.5000000000E+00  0.2492569744E-03  0.6944475790E+02 -0.7681100279E-16 -0.1539136338E-11  0.2000000000E+00  0.1013250000E+06
 -0.1994419203E+00 -0.5000000000E+00  0.2492569744E-03  0.6944475790E+02 -0.1174052565E-15 -0.1995606116E-12  0.2000000000E+00  0.1013250000E+06
 -0.3333300000E+00 -0.1000000000E+01  0.2492569744E-03  0.6944475790E+02 -0.2875049125E-15 -0.7222647143E-12  0.2000000000E+00  0.1013250000E+06
 -0.2663859601E+00 -0.1000000000E+01  0.2492569744E-03  0.6944475790E+02 -0.3874638238E-15 -0.1186476962E-11  0.2000000000E+00  0.1013250000E+06
 -0.1994419203E+00 -0.1000000000E+01  0.2492569744E-03  0.6944475790E+02 -0.8358990063E-15  0.2776117161E-12  0.2000000000E+00  0.1013250000E+06
 -0.3333300000E+00  0.0000000000E+00  0.2009956487E-03  0.6944475790E+02  0.0000000000E+00 -0.1223723953E-11  0.2000000000E+00  0.1013250000E+06
 -0.2663859601E+00  0.0000000000E+00  0.2009956487E-03  0.6944475790E+02 -0.2413978095E-15 -0.7203155603E-12  0.2000000000E+00  0.1013250000E+06
 -0.1994419203E+00  0.0000000000E+00  0.2009956487E-03  0.6944475790E+02 -0.2413978095E-15 -0.2204307486E-12  0.2000000000E+00  0.1013250000E+06
 -0.3333300000E+00 -0.5000000000E+00  0.2009956487E-03  0.6944475790E+02 -0.1220497599E-15 -0.1110587324E-11  0.2000000000E+00  0.1013250000E+06
 -0.2663859601E+00 -0.5000000000E+00  0.2009956487E-03  0.6944475790E+02  0.6182223133E-16 -0.1658076448E-11  0.2000000000E+00  0.1013250000E+06
 -0.1994419203E+00 -0.5000000000E+00  0.2009956487E-03  0.6944475790E+02  0.2611621286E-15 -0.6466316030E-12  0.2000000000E+00  0.1013250000E+06
 -0.3333300000E+00 -0.1000000000E+01  0.2009956487E-03  0.6944475790E+02  0.1689784667E-14 -0.1169364274E-11  0.2000000000E+00  0.1013250000E+06