TITLE = "Generated from MESH/FlatPlateSA_0000000000.hmesh and RESULTS/FlatPlateSA_0000010000.hsol"
VARIABLES = "x","y","z","u","v","w","Mach","p"
ZONE T="FLUID" N=22032 E=6528 ET=BRICK, F=FEPOINT
 -0.3333300000E+00  0.0000000000E+00  0.7597242754E-02  0.6944475790E+02  0.1257412490E-13 -0.8394383118E-12  0.2000000000E+00  0.1013250000E+06
 -0.2663859601E+00  0.0000000000E+00  0.7597242754E-02  0.6944475790E+02  0.1845509112E-13  0.7528849256E-12  0.2000000000E+00  0.1013250000E+06
 -0.1994419203E+00  0.0000000000E+00  0.7597242754E-02  0.6944475790E+02 -0.9451422532E-14 -0.2325030288E-09  0.2000000000E+00  0.1013250000E+06
 -0.3333300000E+00 -0.5000000000E+00  0.7597242754E-02  0.6944475790E+02 -0.1238373423E-14 -0.7748480888E-12  0.2000000000E+00  0.1013250000E+06
 -0.2663859601E+00 -0.5000000000E+00  0.7597242754E-02  0.6944475790E+02 -0.3559947904E-14 -0.1803913353E-13  0.2000000000E+00  0.1013250000E+06
 -0.1994419203E+00 -0.5000000000E+00  0.7597242754E-02  0.6944475790E+02 -0.4632651327E-14 -0.2325442661E-09  0.2000000000E+00  0.1013250000E+06
 -0.3333300000E+00 -0.1000000000E+01  0.7597242754E-02  0.6944475790E+02 -0.2036877337E-13 -0.1069282431E-11  0.2000000000E+00  0.1013250000E+06
 -0.2663859601E+00 -0.1000000000E+01  0.7597242754E-02  0.6944475790E+02 -0.1208760890E-13 -0.1327307237E-13  0.2000000000E+00  0.1013250000E+06
 -0.1994419203E+00 -0.1000000000E+01  0.7597242754E-02  0.6944475790E+02 -0.1881558003E-15 -0.2330540913E-09  0.2000000000E+00  0.1013250000E+06
 -0.3333300000E+00  0.0000000000E+00  0.6130418827E-02  0.6944475790E+02  0.2151001049E-14 -0.1390302399E-11  0.2000000000E+00  0.1013250000E+06
 -0.2663859601E+00  0.0000000000E+00  0.6130418827E-02  0.6944475790E+02  0.0000000000E+00  0.6894292040E-13  0.2000000000E+00  0.1013250000E+06
 -0.1994419203E+00  0.0000000000E+00  0.6130418827E-02  0.6944475790E+02 -0.1394824705E-13 -0.2008503769E-09  0.2000000000E+00  0.1013250000E+06
 -0.3333300000E+00 -0.5000000000E+00  0.6130418827E-02  0.6944475790E+02 -0.1502290233E-14 -0.1341323618E-11  0.2000000000E+00  0.1013250000E+06
 -0.2663859601E+00 -0.5000000000E+00  0.6130418827E-02  0.6944475790E+02  0.7085314617E-15  0.7158004013E-13  0.2000000000E+00  0.1013250000E+06
 -0.1994419203E+00 -0.5000000000E+00  0.6130418827E-02  0.6944475790E+02  0.2788017394E-14 -0.1985668767E-09  0.2000000000E+00  0.1013250000E+06
 -0.3333300000E+00 -0.1000000000E+01  0.6130418827E-02  0.6944475790E+02 -0.3008063317E-13 -0.1292517471E-11  0.2000000000E+00  0.1013250000E+06
 -0.2663859601E+00 -0.1000000000E+01  0.6130418827E-02  0.6944475790E+02  0.6650795411E-14  0.7133280674E-13  0.2000000000E+00  0.1013250000E+06
 -0.1994419203E+00 -0.1000000000E+01  0.6130418827E-02  0.6944475790E+02  0.7392464833E-14 -0.2010401506E-09  0.2000000000E+00  0.1013250000E+06
 -0.3333300000E+00  0.0000000000E+00  0.4663594900E-02  0.6944475790E+02  0.7141247572E-14 -0.9879150126E-12  0.2000000000E+00  0.1013250000E+06
 -0.2663859601E+00  0.0000000000E+00  0.4663594900E-02  0.6944475790E+02 -0.5162102006E-14  0.2633354241E-12  0.2000000000E+00  0.1013250000E+06
 -0.1994419203E+00  0.0000000000E+00  0.4663594900E-02  0.6944475790E+02  0.1669051351E-13 -0.1545523716E-09  0.2000000000E+00  0.1013250000E+06
 -0.3333300000E+00 -0.5000000000E+00  0.4663594900E-02  0.6944475790E+02 -0.1310089935E-15 -0.6928373119E-12  0.2000000000E+00  0.1013250000E+06
 -0.2663859601E+00 -0.5000000000E+00  0.4663594900E-02  0.6944475790E+02  0.2277850479E-14 -0.4486363187E-12  0.2000000000E+00  0.1013250000E+06
 -0.1994419203E+00 -0.5000000000E+00  0.4663594900E-02  0.6944475790E+02  0.2785463199E-14 -0.1495659702E-09  0.2000000000E+00  0.1013250000E+06
 -0.3333300000E+00 -0.1000000000E+01  0.4663594900E-02  0.6944475790E+02 -0.1005452059E-13 -0.1229629711E-11  0.2000000000E+00  0.1013250000E+06
 -0.2663859601E+00 -0.1000000000E+01  0.4663594900E-02  0.6944475790E+02  0.5135910371E-14 -0.5672336758E-12  0.2000000000E+00  0.1013250000E+06
 -0.1994419203E+00 -0.1000000000E+01  0.4663594900E-02  0.6944475790E+02 -0.4245875986E-13 -0.1536323374E-09  0.2000000000E+00  0.1013250000E+06
 -0.3333300000E+00  0.0000000000E+00  0.2862755459E-02  0.6944475790E+02 -0.1082692855E-14 -0.9714097403E-12  0.2000000000E+00  0.1013250000E+06
 -0.2663859601E+00  0.0000000000E+00  0.2862755459E-02  0.6944475790E+02  0.4234623267E-14  0.1375355264E-12  0.2000000000E+00  0.1013250000E+06
 -0.1994419203E+00  0.0000000000E+00  0.2862755459E-02  0.6944475790E+02  0.2742012816E-13 -0.9856905536E-10  0.2000000000E+00  0.1013250000E+06
 -0.3333300000E+00 -0.5000000000E+00  0.2862755459E-02  0.6944475790E+02  0.2028709879E-14 -0.5940504163E-12  0.2000000000E+00  0.1013250000E+06
 -0.2663859601E+00 -0.5000000000E+00  0.2862755459E-02  0.6944475790E+02  0.3325671345E-14 -0.1296727786E-11  0.2000000000E+00  0.1013250000E+06
 -0.1994419203E+00 -0.5000000000E+00  0.2862755459E-02  0.6944475790E+02 -0.3002268563E-14 -0.9949678668E-10  0.2000000000E+00  0.1013250000E+06
 -0.3333300000E+00 -0.1000000000E+01  0.2862755459E-02  0.6944475790E+02  0.1277551503E-13 -0.1227685277E-11  0.2000000000E+00  0.1013250000E+06
 -0.2663859601E+00 -0.1000000000E+01  0.2862755459E-02  0.6944475790E+02 -0.5097764878E-14 -0.1272907700E-11  0.2000000000E+00  0.1013250000E+06
 -0.1994419203E+00 -0.1000000000E+01  0.2862755459E-02  0.6944475790E+02 -0.6046413476E-13 -0.9594105624E-10  0.2000000000E+00  0.1013250000E+06
 -0.3333300000E+00  0.0000000000E+00  0.2310023899E-02  0.6944475790E+02 -0.3060065782E-14 -0.2242897560E-11  0.2000000000E+00  0.1013250000E+06
 -0.2663859601E+00  0.0000000000E+00  0.2310023899E-02  0.6944475790E+02 -0.1348855059E-13 -0.1325351888E-11  0.2000000000E+00  0.1013250000E+06
 -0.1994419203E+00  0.0000000000E+00  0.2310023899E-02  0.6944475790E+02  0.2904797331E-13 -0.8396454598E-10  0.2000000000E+00  0.1013250000E+06
 -0.3333300000E+00 -0.5000000000E+00  0.2310023899E-02  0.6944475790E+02  0.2917729356E-14 -0.2089053984E-11  0.2000000000E+00  0.1013250000E+06
 -0.2663859601E+00 -0.5000000000E+00  0.2310023899E-02  0.6944475790E+02  0.1777824233E-14 -0.1322549116E-11  0.2000000000E+00  0.1013250000E+06
 -0.1994419203E+00 -0.5000000000E+00  0.2310023899E-02  0.6944475790E+02  0.1322434782E-14 -0.8230663366E-10  0.2000000000E+00  0.1013250000E+06
 -0.3333300000E+00 -0.1000000000E+01  0.2310023899E-02  0.6944475790E+02 -0.8171347227E-14 -0.1988381933E-11  0.2000000000E+00  0.1013250000E+06
 -0.2663859601E+00 -0.1000000000E+01  0.2310023899E-02  0.6944475790E+02  0.6744275295E-14 -0.1315104775E-11  0.2000000000E+00  0.1013250000E+06
 -0.1994419203E+00 -0.1000000000E+01  0.2310023899E-02  0.6944475790E+02 -0.2824484568E-13 -0.8096906719E-10  0.2000000000E+00  0.1013250000E+06
 -0.3333300000E+00  0.0000000000E+00  0.1757292340E-02  0.6944475790E+02 -0.2296667133E-16 -0.1328340268E-11  0.2000000000E+00  0.1013250000E+06
 -0.2663859601E+00  0.0000000000E+00  0.1757292340E-02  0.6944475790E+02  0.1348855059E-13 -0.5619026863E-13  0.2000000000E+00  0.1013250000E+06
 -0.1994419203E+00  0.0000000000E+00  0.1757292340E-02  0.6944475790E+02  0.4040999923E-13 -0.6489876190E-10  0.2000000000E+00  0.1013250000E+06
 -0.3333300000E+00 -0.5000000000E+00  0.1757292340E-02  0.6944475790E+02 -0.6372218008E-15 -0.2925476730E-12  0.2000000000E+00  0.1013250000E+06
 -0.2663859601E+00 -0.5000000000E+00  0.1757292340E-02  0.6944475790E+02 -0.3808585639E-14 -0.2759119882E-11  0.2000000000E+00  0.1013250000E+06
 -0.1994419203E+00 -0.5000000000E+00  0.1757292340E-02  0.6944475790E+02 -0.6388737385E-14 -0.6513919446E-10  0.2000000000E+00  0.1013250000E+06
 -0.3333300000E+00 -0.1000000000E+01  0.1757292340E-02  0.6944475790E+02 -0.5587067128E-14 -0.1888970730E-11  0.2000000000E+00  0.1013250000E+06
 -0.2663859601E+00 -0.1000000000E+01  0.1757292340E-02  0.6944475790E+02 -0.1231235667E-13 -0.2498345764E-11  0.2000000000E+00  0.1013250000E+06
 -0.1994419203E+00 -0.1000000000E+01  0.1757292340E-02  0.6944475790E+02 -0.3692984308E-13 -0.6582157634E-10  0.2000000000E+00  0.1013250000E+06
 -0.3333300000E+00  0.0000000000E+00  0.4663594900E-02  0.6944475790E+02  0.7331539704E-14 -0.9384484171E-12  0.2000000000E+00  0.1013250000E+06
 -0.2663859601E+00  0.0000000000E+00  0.4663594900E-02  0.6944475790E+02 -0.4778446553E-14  0.4114653419E-12  0.2000000000E+00  0.1013250000E+06
 -0.1994419203E+00  0.0000000000E+00  0.4663594900E-02  0.6944475790E+02  0.1658479360E-13 -0.1569273155E-09  0.2000000000E+00  0.1013250000E+06
 -0.3333300000E+00 -0.5000000000E+00  0.4663594900E-02  0.6944475790E+02 -0.2239094384E-15 -0.6719606876E-12  0.2000000000E+00  0.1013250000E+06
 -0.2663859601E+00 -0.5000000000E+00  0.4663594900E-02  0.6944475790E+02  0.2138395528E-14 -0.4979465178E-12  0.2000000000E+00  0.1013250000E+06
 -0.1994419203E+00 -0.5000000000E+00  0.4663594900E-02  0.6944475790E+02  0.2902829723E-14 -0.1540055927E-09  0.2000000000E+00  0.1013250000E+06
 -0.3333300000E+00 -0.1000000000E+01  0.4663594900E-02  0.6944475790E+02 -0.9041528686E-14 -0.1174153097E-11  0.2000000000E+00  0.1013250000E+06
 -0.2663859601E+00 -0.1000000000E+01  0.4663594900E-02  0.6944475790E+02  0.4878082334E-14 -0.5178633819E-12  0.2000000000E+00  0.1013250000E+06
 -0.1994419203E+00 -0.1000000000E+01  0.4663594900E-02  0.6944475790E+02 -0.4317211806E-13 -0.1579133969E-09  0.2000000000E+00  0.1013250000E+06
 -0.3333300000E+00  0.0000000000E+00  0.3763175179E-02  0.6944475790E+02  0.4495259935E-14 -0.1648010026E-11  0.2000000000E+00  0.1013250000E+06
 -0.2663859601E+00  0.0000000000E+00  0.3763175179E-02  0.6944475790E+02 -0.4140040157E-14 -0.5188287882E-12  0.2000000000E+00  0.1013250000E+06
 -0.1994419203E+00  0.0000000000E+00  0.3763175179E-02  0.6944475790E+02  0.2830998404E-13 -0.1243496622E-09  0.2000000000E+00  0.1013250000E+06
 -0.3333300000E+00 -0.5000000000E+00  0.3763175179E-02  0.6944475790E+02 -0.1070976840E-14 -0.1556557032E-11  0.2000000000E+00  0.1013250000E+06
 -0.2663859601E+00 -0.5000000000E+00  0.3763175179E-02  0.6944475790E+02 -0.6942534840E-15 -0.5283145706E-12  0.2000000000E+00  0.1013250000E+06
 -0.1994419203E+00 -0.5000000000E+00  0.3763175179E-02  0.6944475790E+02 -0.3155261908E-14 -0.1257013257E-09  0.2000000000E+00  0.1013250000E+06
 -0.3333300000E+00 -0.1000000000E+01  0.3763175179E-02  0.6944475790E+02  0.1940320050E-13 -0.1487981238E-11  0.2000000000E+00  0.1013250000E+06
 -0.2663859601E+00 -0.1000000000E+01  0.3763175179E-02  0.6944475790E+02  0.3154117201E-14 -0.5142678423E-12  0.2000000000E+00  0.1013250000E+06
 -0.1994419203E+00 -0.1000000000E+01  0.3763175179E-02  0.6944475790E+02 -0.7879169170E-13 -0.1265093469E-09  0.2000000000E+00  0.1013250000E+06
 -0.3333300000E+00  0.0000000000E+00  0.2862755459E-02  0.6944475790E+02 -0.7566027271E-15 -0.1020837548E-11  0.2000000000E+00  0.1013250000E+06
 -0.2663859601E+00  0.0000000000E+00  0.2862755459E-02  0.6944475790E+02  0.4448178452E-14 -0.1033606420E-13  0.2000000000E+00  0.1013250000E+06
 -0.1994419203E+00  0.0000000000E+00  0.2862755459E-02  0.6944475790E+02  0.2798167633E-13 -0.9899173453E-10  0.2000000000E+00  0.1013250000E+06
 -0.3333300000E+00 -0.5000000000E+00  0.2862755459E-02  0.6944475790E+02  0.1904294874E-14 -0.5450242215E-12  0.2000000000E+00  0.1013250000E+06
 -0.2663859601E+00 -0.5000000000E+00  0.2862755459E-02  0.6944475790E+02  0.3244039371E-14 -0.1247863290E-11  0.2000000000E+00  0.1013250000E+06
 -0.1994419203E+00 -0.5000000000E+00  0.2862755459E-02  0.6944475790E+02 -0.2701547244E-14 -0.9969217774E-10  0.2000000000E+00  0.1013250000E+06
 -0.3333300000E+00 -0.1000000000E+01  0.2862755459E-02  0.6944475790E+02  0.1310334846E-13 -0.1367416283E-11  0.2000000000E+00  0.1013250000E+06
 -0.2663859601E+00 -0.1000000000E+01  0.2862755459E-02  0.6944475790E+02 -0.5150766877E-14 -0.1322720970E-11  0.2000000000E+00  0.1013250000E+06
 -0.1994419203E+00 -0.1000000000E+01  0.2862755459E-02  0.6944475790E+02 -0.6090836370E-13 -0.9903016195E-10  0.2000000000E+00  0.1013250000E+06
 -0.3333300000E+00  0.0000000000E+00  0.1757292340E-02  0.6944475790E+02  0.5452111921E-16 -0.1399321397E-11  0.2000000000E+00  0.1013250000E+06
 -0.2663859601E+00  0.0000000000E+00  0.1757292340E-02  0.6944475790E+02  0.1350125644E-13  0.9153472235E-13  0.2000000000E+00  0.1013250000E+06
 -0.1994419203E+00  0.0000000000E+00  0.1757292340E-02  0.6944475790E+02  0.3983691276E-13 -0.6334659376E-10  0.2000000000E+00  0.1013250000E+06
 -0.3333300000E+00 -0.5000000000E+00  0.1757292340E-02  0.6944475790E+02 -0.6243238326E-15 -0.2434572119E-12  0.2000000000E+00  0.1013250000E+06
 -0.2663859601E+00 -0.5000000000E+00  0.1757292340E-02  0.6944475790E+02 -0.3799766518E-14 -0.2808331855E-11  0.2000000000E+00  0.1013250000E+06
 -0.1994419203E+00 -0.5000000000E+00  0.1757292340E-02  0.6944475790E+02 -0.6714988549E-14 -0.6545517369E-10  0.2000000000E+00  0.1013250000E+06
 -0.3333300000E+00 -0.1000000000E+01  0.1757292340E-02  0.6944475790E+02 -0.5783316409E-14 -0.1839597770E-11  0.2000000000E+00  0.1013250000E+06
 -0.2663859601E+00 -0.1000000000E+01  0.1757292340E-02  0.6944475790E+02 -0.1237292715E-13 -0.2448743997E-11  0.2000000000E+00  0.1013250000E+06
 -0.1994419203E+00 -0.1000000000E+01  0.1757292340E-02  0.6944475790E+02 -0.3702361192E-13 -0.6816344093E-10  0.2000000000E+00  0.1013250000E+06
 -0.3333300000E+00  0.0000000000E+00  0.1417987932E-02  0.6944475790E+02 -0.7487828031E-14 -0.2800422971E-11  0.2000000000E+00  0.1013250000E+06
 -0.2663859601E+00  0.0000000000E+00  0.1417987932E-02  0.6944475790E+02 -0.5493258723E-14 -0.2495917113E-11  0.2000000000E+00  0.1013250000E+06
 -0.1994419203E+00  0.0000000000E+00  0.1417987932E-02  0.6944475790E+02  0.3649018366E-13 -0.5244512712E-10  0.2000000000E+00  0.1013250000E+06
 -0.3333300000E+00 -0.5000000000E+00  0.1417987932E-02  0.6944475790E+02  0.2442089554E-14 -0.3104321576E-11  0.2000000000E+00  0.1013250000E+06
 -0.2663859601E+00 -0.5000000000E+00  0.1417987932E-02  0.6944475790E+02 -0.6917769224E-17 -0.2541696611E-11  0.2000000000E+00  0.1013250000E+06
 -0.1994419203E+00 -0.5000000000E+00  0.1417987932E-02  0.6944475790E+02 -0.2997398175E-14 -0.5500561958E-10  0.2000000000E+00  0.1013250000E+06
 -0.3333300000E+00 -0.1000000000E+01  0.1417987932E-02  0.6944475790E+02 -0.9441206653E-15 -0.2877933926E-11  0.2000000000E+00  0.1013250000E+06
 -0.2663859601E+00 -0.1000000000E+01  0.1417987932E-02  0.6944475790E+02 -0.1098651745E-13 -0.2481596375E-11  0.2000000000E+00  0.1013250000E+06
 -0.1994419203E+00 -0.1000000000E+01  0.1417987932E-02  0.6944475790E+02 -0.5209950891E-13 -0.5705150692E-10  0.2000000000E+00  0.1013250000E+06
 -0.3333300000E+00  0.0000000000E+00  0.1078683524E-02  0.6944475790E+02 -0.7060835633E-14  0.1201429840E-11  0.2000000000E+00  0.1013250000E+06
 -0.2663859601E+00  0.0000000000E+00  0.1078683524E-02  0.6944475790E+02  0.3643911722E-15 -0.1792014852E-11  0.2000000000E+00  0.1013250000E+06
 -0.1994419203E+00  0.0000000000E+00  0.1078683524E-02  0.6944475790E+02  0.2802939424E-13 -0.4170372286E-10  0.2000000000E+00  0.1013250000E+06
 -0.3333300000E+00 -0.5000000000E+00  0.1078683524E-02  0.6944475790E+02  0.2189198628E-14 -0.2388896296E-11  0.2000000000E+00  0.1013250000E+06
 -0.2663859601E+00 -0.5000000000E+00  0.1078683524E-02  0.6944475790E+02  0.2283654830E-14 -0.5935329714E-11  0.2000000000E+00  0.1013250000E+06
 -0.1994419203E+00 -0.5000000000E+00  0.1078683524E-02  0.6944475790E+02 -0.3741799272E-14 -0.4223081299E-10  0.2000000000E+00  0.1013250000E+06
 -0.3333300000E+00 -0.1000000000E+01  0.1078683524E-02  0.6944475790E+02  0.1564621329E-13 -0.3046296837E-11  0.2000000000E+00  0.1013250000E+06
 -0.2663859601E+00 -0.1000000000E+01  0.1078683524E-02  0.6944475790E+02 -0.5448004991E-14 -0.3345973666E-11  0.2000000000E+00  0.1013250000E+06
 -0.1994419203E+00 -0.1000000000E+01  0.1078683524E-02  0.6944475790E+02 -0.5894926118E-13 -0.4618722542E-10  0.2000000000E+00  0.1013250000E+06
 -0.3333300000E+00  0.0000000000E+00  0.1078683524E-02  0.6944475790E+02 -0.6717599331E-14  0.1807446312E-11  0.2000000000E+00  0.1013250000E+06
 -0.2663859601E+00  0.0000000000E+00  0.1078683524E-02  0.6944475790E+02  0.4155231493E-15 -0.1546149971E-11  0.2000000000E+00  0.1013250000E+06
 -0.1994419203E+00  0.0000000000E+00  0.1078683524E-02  0.6944475790E+02  0.2832130704E-13 -0.4150778483E-10  0.2000000000E+00  0.1013250000E+06
 -0.3333300000E+00 -0.5000000000E+00  0.1078683524E-02  0.6944475790E+02  0.2228590613E-14 -0.2439472594E-11  0.2000000000E+00  0.1013250000E+06
 -0.2663859601E+00 -0.5000000000E+00  0.1078683524E-02  0.6944475790E+02  0.2282174891E-14 -0.5886735870E-11  0.2000000000E+00  0.1013250000E+06
 -0.1994419203E+00 -0.5000000000E+00  0.1078683524E-02  0.6944475790E+02 -0.3657700185E-14 -0.4200886822E-10  0.2000000000E+00  0.1013250000E+06
 -0.3333300000E+00 -0.1000000000E+01  0.1078683524E-02  0.6944475790E+02  0.1579719525E-13 -0.2996924664E-11  0.2000000000E+00  0.1013250000E+06
 -0.2663859601E+00 -0.1000000000E+01  0.1078683524E-02  0.6944475790E+02 -0.5361960008E-14 -0.3198664387E-11  0.2000000000E+00  0.1013250000E+06
 -0.1994419203E+00 -0.1000000000E+01  0.1078683524E-02  0.6944475790E+02 -0.5946414699E-13 -0.4609530713E-10  0.2000000000E+00  0.1013250000E+06
 -0.3333300000E+00  0.0000000000E+00  0.8703876824E-03  0.6944475790E+02 -0.6501104362E-14 -0.4808066904E-11  0.2000000000E+00  0.1013250000E+06
 -0.2663859601E+00  0.0000000000E+00  0.8703876824E-03  0.6944475790E+02 -0.5592472571E-14 -0.3125810407E-11  0.2000000000E+00  0.1013250000E+06
 -0.1994419203E+00  0.0000000000E+00  0.8703876824E-03  0.6944475790E+02  0.2442444776E-13 -0.3109075797E-10  0.2000000000E+00  0.1013250000E+06
 -0.3333300000E+00 -0.5000000000E+00  0.8703876824E-03  0.6944475790E+02 -0.9546540251E-15 -0.4210428887E-11  0.2000000000E+00  0.1013250000E+06
 -0.2663859601E+00 -0.5000000000E+00  0.8703876824E-03  0.6944475790E+02  0.1731930910E-14 -0.7767989518E-11  0.2000000000E+00  0.1013250000E+06
 -0.1994419203E+00 -0.5000000000E+00  0.8703876824E-03  0.6944475790E+02 -0.2802656552E-14 -0.3329137787E-10  0.2000000000E+00  0.1013250000E+06
 -0.3333300000E+00 -0.1000000000E+01  0.8703876824E-03  0.6944475790E+02  0.4072163189E-13 -0.4385261845E-11  0.2000000000E+00  0.1013250000E+06
 -0.2663859601E+00 -0.1000000000E+01  0.8703876824E-03  0.6944475790E+02  0.1254562993E-14 -0.6088513693E-11  0.2000000000E+00  0.1013250000E+06
 -0.1994419203E+00 -0.1000000000E+01  0.8703876824E-03  0.6944475790E+02 -0.9294248863E-13 -0.3765189658E-10  0.2000000000E+00  0.1013250000E+06
 -0.3333300000E+00  0.0000000000E+00  0.6620918412E-03  0.6944475790E+02 -0.1466040758E-14 -0.9250954755E-11  0.2000000000E+00  0.1013250000E+06
 -0.2663859601E+00  0.0000000000E+00  0.6620918412E-03  0.6944475790E+02 -0.1086191685E-13 -0.4244730135E-11  0.2000000000E+00  0.1013250000E+06
 -0.1994419203E+00  0.0000000000E+00  0.6620918412E-03  0.6944475790E+02  0.3626409192E-13 -0.2051670612E-10  0.2000000000E+00  0.1013250000E+06
 -0.3333300000E+00 -0.5000000000E+00  0.6620918412E-03  0.6944475790E+02 -0.7300743932E-15 -0.6003433625E-11  0.2000000000E+00  0.1013250000E+06
 -0.2663859601E+00 -0.5000000000E+00  0.6620918412E-03  0.6944475790E+02 -0.1016442073E-15 -0.5221587708E-11  0.2000000000E+00  0.1013250000E+06
 -0.1994419203E+00 -0.5000000000E+00  0.6620918412E-03  0.6944475790E+02 -0.4475014898E-14 -0.2303133317E-10  0.2000000000E+00  0.1013250000E+06
 -0.3333300000E+00 -0.1000000000E+01  0.6620918412E-03  0.6944475790E+02  0.3573448803E-13 -0.4928524467E-11  0.2000000000E+00  0.1013250000E+06
 -0.2663859601E+00 -0.1000000000E+01  0.6620918412E-03  0.6944475790E+02  0.1550839775E-13 -0.6648552914E-11  0.2000000000E+00  0.1013250000E+06
 -0.1994419203E+00 -0.1000000000E+01  0.6620918412E-03  0.6944475790E+02 -0.9598499433E-13 -0.2748616641E-10  0.2000000000E+00  0.1013250000E+06
 -0.3333300000E+00  0.0000000000E+00  0.6620918412E-03  0.6944475790E+02 -0.1544039296E-14 -0.8524432507E-11  0.2000000000E+00  0.1013250000E+06
 -0.2663859601E+00  0.0000000000E+00  0.6620918412E-03  0.6944475790E+02 -0.1079235785E-13 -0.4097654612E-11  0.2000000000E+00  0.1013250000E+06
 -0.1994419203E+00  0.0000000000E+00  0.6620918412E-03  0.6944475790E+02  0.3638638810E-13 -0.2035501844E-10  0.2000000000E+00  0.1013250000E+06
 -0.3333300000E+00 -0.5000000000E+00  0.6620918412E-03  0.6944475790E+02 -0.7790252331E-15 -0.5954210298E-11  0.2000000000E+00  0.1013250000E+06
 -0.2663859601E+00 -0.5000000000E+00  0.6620918412E-03  0.6944475790E+02 -0.1083081914E-15 -0.5271006383E-11  0.2000000000E+00  0.1013250000E+06
 -0.1994419203E+00 -0.5000000000E+00  0.6620918412E-03  0.6944475790E+02 -0.4513252474E-14 -0.2317518571E-10  0.2000000000E+00  0.1013250000E+06
 -0.3333300000E+00 -0.1000000000E+01  0.6620918412E-03  0.6944475790E+02  0.3565402416E-13 -0.4881425656E-11  0.2000000000E+00  0.1013250000E+06
 -0.2663859601E+00 -0.1000000000E+01  0.6620918412E-03  0.6944475790E+02  0.1547745382E-13 -0.6599778291E-11  0.2000000000E+00  0.1013250000E+06
 -0.1994419203E+00 -0.1000000000E+01  0.6620918412E-03  0.6944475790E+02 -0.9600948757E-13 -0.2770372374E-10  0.2000000000E+00  0.1013250000E+06
 -0.3333300000E+00  0.0000000000E+00  0.5342085599E-03  0.6944475790E+02 -0.4419230595E-14 -0.6255089086E-11  0.2000000000E+00  0.1013250000E+06
 -0.2663859601E+00  0.0000000000E+00  0.5342085599E-03  0.6944475790E+02  0.9671163416E-14 -0.3395153497E-11  0.2000000000E+00  0.1013250000E+06
 -0.1994419203E+00  0.0000000000E+00  0.5342085599E-03  0.6944475790E+02  0.3656690399E-13 -0.1509440507E-10  0.2000000000E+00  0.1013250000E+06
 -0.3333300000E+00 -0.5000000000E+00  0.5342085599E-03  0.6944475790E+02 -0.2872742719E-14 -0.3875720900E-11  0.2000000000E+00  0.1013250000E+06
 -0.2663859601E+00 -0.5000000000E+00  0.5342085599E-03  0.6944475790E+02 -0.2646883490E-14 -0.2791684706E-11  0.2000000000E+00  0.1013250000E+06
 -0.1994419203E+00 -0.5000000000E+00  0.5342085599E-03  0.6944475790E+02 -0.6908318093E-14 -0.1814901604E-10  0.2000000000E+00  0.1013250000E+06
 -0.3333300000E+00 -0.1000000000E+01  0.5342085599E-03  0.6944475790E+02  0.1224031422E-13 -0.2905468013E-11  0.2000000000E+00  0.1013250000E+06
 -0.2663859601E+00 -0.1000000000E+01  0.5342085599E-03  0.6944475790E+02 -0.7287453377E-14 -0.4331417808E-11  0.2000000000E+00  0.1013250000E+06
 -0.1994419203E+00 -0.1000000000E+01  0.5342085599E-03  0.6944475790E+02 -0.7592874226E-13 -0.2207945075E-10  0.2000000000E+00  0.1013250000E+06
 -0.3333300000E+00  0.0000000000E+00  0.4063252786E-03  0.6944475790E+02 -0.1137776205E-13 -0.3893769156E-11  0.2000000000E+00  0.1013250000E+06
 -0.2663859601E+00  0.0000000000E+00  0.4063252786E-03  0.6944475790E+02  0.1525012454E-14 -0.1199628693E-11  0.2000000000E+00  0.1013250000E+06
 -0.1994419203E+00  0.0000000000E+00  0.4063252786E-03  0.6944475790E+02  0.4118506976E-13 -0.1111772167E-10  0.2000000000E+00  0.1013250000E+06
 -0.3333300000E+00 -0.5000000000E+00  0.4063252786E-03  0.6944475790E+02  0.2750196585E-14 -0.2071604686E-11  0.2000000000E+00  0.1013250000E+06
 -0.2663859601E+00 -0.5000000000E+00  0.4063252786E-03  0.6944475790E+02  0.2564053417E-14 -0.7042161207E-12  0.2000000000E+00  0.1013250000E+06
 -0.1994419203E+00 -0.5000000000E+00  0.4063252786E-03  0.6944475790E+02 -0.8131898666E-14 -0.1372218757E-10  0.2000000000E+00  0.1013250000E+06
 -0.3333300000E+00 -0.1000000000E+01  0.4063252786E-03  0.6944475790E+02  0.1504209879E-13 -0.1390802468E-11  0.2000000000E+00  0.1013250000E+06
 -0.2663859601E+00 -0.1000000000E+01  0.4063252786E-03  0.6944475790E+02 -0.4636133899E-14 -0.1319004488E-11  0.2000000000E+00  0.1013250000E+06
 -0.1994419203E+00 -0.1000000000E+01  0.4063252786E-03  0.6944475790E+02 -0.6743782720E-13 -0.1589233764E-10  0.2000000000E+00  0.1013250000E+06
 -0.3333300000E+00  0.0000000000E+00  0.4063252786E-03  0.6944475790E+02 -0.1138175121E-13 -0.4038985772E-11  0.2000000000E+00  0.1013250000E+06
 -0.2663859601E+00  0.0000000000E+00  0.4063252786E-03  0.6944475790E+02  0.1498198102E-14 -0.1050140348E-11  0.2000000000E+00  0.1013250000E+06
 -0.1994419203E+00  0.0000000000E+00  0.4063252786E-03  0.6944475790E+02  0.4116461683E-13 -0.1102459924E-10  0.2000000000E+00  0.1013250000E+06
 -0.3333300000E+00 -0.5000000000E+00  0.4063252786E-03  0.6944475790E+02  0.2767148135E-14 -0.2321767252E-11  0.2000000000E+00  0.1013250000E+06
 -0.2663859601E+00 -0.5000000000E+00  0.4063252786E-03  0.6944475790E+02  0.2571529405E-14 -0.8504489901E-12  0.2000000000E+00  0.1013250000E+06
 -0.1994419203E+00 -0.5000000000E+00  0.4063252786E-03  0.6944475790E+02 -0.8137714556E-14 -0.1358216721E-10  0.2000000000E+00  0.1013250000E+06
 -0.3333300000E+00 -0.1000000000E+01  0.4063252786E-03  0.6944475790E+02  0.1498257052E-13 -0.1539485496E-11  0.2000000000E+00  0.1013250000E+06
 -0.2663859601E+00 -0.1000000000E+01  0.4063252786E-03  0.6944475790E+02 -0.4633466945E-14 -0.1563151763E-11  0.2000000000E+00  0.1013250000E+06
 -0.1994419203E+00 -0.1000000000E+01  0.4063252786E-03  0.6944475790E+02 -0.6736477909E-13 -0.1562759267E-10  0.2000000000E+00  0.1013250000E+06
 -0.3333300000E+00  0.0000000000E+00  0.3277911265E-03  0.6944475790E+02 -0.9648451153E-14 -0.2683481480E-11  0.2000000000E+00  0.1013250000E+06
 -0.2663859601E+00  0.0000000000E+00  0.3277911265E-03  0.6944475790E+02  0.2333868796E-14 -0.3827337923E-12  0.2000000000E+00  0.1013250000E+06
 -0.1994419203E+00  0.0000000000E+00  0.3277911265E-03  0.6944475790E+02  0.3306263509E-13 -0.8335472237E-11  0.2000000000E+00  0.1013250000E+06
 -0.3333300000E+00 -0.5000000000E+00  0.3277911265E-03  0.6944475790E+02  0.3839126097E-14 -0.1358998898E-11  0.2000000000E+00  0.1013250000E+06
 -0.2663859601E+00 -0.5000000000E+00  0.3277911265E-03  0.6944475790E+02  0.1392286012E-14  0.6787783589E-12  0.2000000000E+00  0.1013250000E+06
 -0.1994419203E+00 -0.5000000000E+00  0.3277911265E-03  0.6944475790E+02 -0.1097104161E-13 -0.1082678947E-10  0.2000000000E+00  0.1013250000E+06
 -0.3333300000E+00 -0.1000000000E+01  0.3277911265E-03  0.6944475790E+02  0.4300697900E-14 -0.1789931689E-12  0.2000000000E+00  0.1013250000E+06
 -0.2663859601E+00 -0.1000000000E+01  0.3277911265E-03  0.6944475790E+02  0.1287515144E-15  0.1869050317E-12  0.2000000000E+00  0.1013250000E+06
 -0.1994419203E+00 -0.1000000000E+01  0.3277911265E-03  0.6944475790E+02 -0.3928038488E-13 -0.1286129935E-10  0.2000000000E+00  0.1013250000E+06
 -0.3333300000E+00  0.0000000000E+00  0.2492569744E-03  0.6944475790E+02  0.2396743976E-14 -0.1098090441E-11  0.2000000000E+00  0.1013250000E+06
 -0.2663859601E+00  0.0000000000E+00  0.2492569744E-03  0.6944475790E+02  0.8074375633E-14 -0.7124088025E-13  0.2000000000E+00  0.1013250000E+06
 -0.1994419203E+00  0.0000000000E+00  0.2492569744E-03  0.6944475790E+02  0.3775195971E-13 -0.5622921477E-11  0.2000000000E+00  0.1013250000E+06
 -0.3333300000E+00 -0.5000000000E+00  0.2492569744E-03  0.6944475790E+02  0.4383670272E-15  0.4138635660E-12  0.2000000000E+00  0.1013250000E+06
 -0.2663859601E+00 -0.5000000000E+00  0.2492569744E-03  0.6944475790E+02  0.2205566655E-14  0.1458959092E-11  0.2000000000E+00  0.1013250000E+06
 -0.1994419203E+00 -0.5000000000E+00  0.2492569744E-03  0.6944475790E+02 -0.1061142160E-13 -0.8108310282E-11  0.2000000000E+00  0.1013250000E+06
 -0.3333300000E+00 -0.1000000000E+01  0.2492569744E-03  0.6944475790E+02 -0.2184046161E-15  0.1010285313E-11  0.2000000000E+00  0.1013250000E+06
 -0.2663859601E+00 -0.1000000000E+01  0.2492569744E-03  0.6944475790E+02 -0.5043192162E-14  0.1127060684E-11  0.2000000000E+00  0.1013250000E+06
 -0.1994419203E+00 -0.1000000000E+01  0.2492569744E-03  0.6944475790E+02 -0.7297743015E-13 -0.1012964233E-10  0.2000000000E+00  0.1013250000E+06
 -0.3333300000E+00  0.0000000000E+00  0.2492569744E-03  0.6944475790E+02  0.2402147816E-14 -0.1245644138E-11  0.2000000000E+00  0.1013250000E+06
 -0.2663859601E+00  0.0000000000E+00  0.2492569744E-03  0.6944475790E+02  0.8087651443E-14 -0.1191467702E-12  0.2000000000E+00  0.1013250000E+06
 -0.1994419203E+00  0.0000000000E+00  0.2492569744E-03  0.6944475790E+02  0.3775357343E-13 -0.5526918680E-11  0.2000000000E+00  0.1013250000E+06
 -0.3333300000E+00 -0.5000000000E+00  0.2492569744E-03  0.6944475790E+02  0.4339647359E-15  0.1730259907E-12  0.2000000000E+00  0.1013250000E+06
 -0.2663859601E+00 -0.5000000000E+00  0.2492569744E-03  0.6944475790E+02  0.2201420275E-14  0.1214985250E-11  0.2000000000E+00  0.1013250000E+06
 -0.1994419203E+00 -0.5000000000E+00  0.2492569744E-03  0.6944475790E+02 -0.1059886028E-13 -0.8318664497E-11  0.2000000000E+00  0.1013250000E+06
 -0.3333300000E+00 -0.1000000000E+01  0.2492569744E-03  0.6944475790E+02 -0.1682303626E-15  0.6639067783E-12  0.2000000000E+00  0.1013250000E+06
 -0.2663859601E+00 -0.1000000000E+01  0.2492569744E-03  0.6944475790E+02 -0.5051024294E-14  0.9776873985E-12  0.2000000000E+00  0.1013250000E+06
 -0.1994419203E+00 -0.1000000000E+01  0.2492569744E-03  0.6944475790E+02 -0.7299513583E-13 -0.9818874952E-11  0.2000000000E+00  0.1013250000E+06
 -0.3333300000E+00  0.0000000000E+00  0.2009956487E-03  0.6944475790E+02 -0.2038929909E-14 -0.5292139194E-12  0.2000000000E+00  0.1013250000E+06
 -0.2663859601E+00  0.0000000000E+00  0.2009956487E-03  0.6944475790E+02  0.4986042769E-14 -0.3342028015E-12  0.2000000000E+00  0.1013250000E+06
 -0.1994419203E+00  0.0000000000E+00  0.2009956487E-03  0.6944475790E+02  0.3293160656E-13 -0.4209076149E-11  0.2000000000E+00  0.1013250000E+06
 -0.3333300000E+00 -0.5000000000E+00  0.2009956487E-03  0.6944475790E+02 -0.1682897278E-14  0.3462382570E-12  0.2000000000E+00  0.1013250000E+06
 -0.2663859601E+00 -0.5000000000E+00  0.2009956487E-03  0.6944475790E+02  0.2922312815E-14  0.8547589808E-12  0.2000000000E+00  0.1013250000E+06
 -0.1994419203E+00 -0.5000000000E+00  0.2009956487E-03  0.6944475790E+02 -0.5494110641E-14 -0.6662270431E-11  0.2000000000E+00  0.1013250000E+06
 -0.3333300000E+00 -0.1000000000E+01  0.2009956487E-03  0.6944475790E+02  0.2365212500E-13  0.1255487477E-11  0.2000000000E+00  0.1013250000E+06