  TITLE = "Generic solution"                                                                                                         
  VARIABLES = "x","y","z","Q1","Q2","Q3"                                                                                             
 ZONE I=           7 ,J=           7 ,K=           7 , F=POINT
 -0.10000E+01 -0.10000E+01 -0.20123E-15  0.10000E+01  0.10000E+01 -0.20370E-14
 -0.83333E+00 -0.10000E+01 -0.34694E-16  0.10000E+01  0.10000E+01  0.66967E-13
 -0.66667E+00 -0.10000E+01  0.34694E-16  0.10000E+01  0.10000E+01  0.51072E-13
 -0.50000E+00 -0.10000E+01  0.15959E-15  0.10000E+01  0.10000E+01 -0.31763E-14
 -0.33333E+00 -0.10000E+01 -0.69389E-17  0.10000E+01  0.10000E+01 -0.31215E-13
 -0.16667E+00 -0.10000E+01 -0.20817E-16  0.10000E+01  0.10000E+01 -0.54669E-14
 -0.10342E-15 -0.10000E+01 -0.34694E-16  0.10000E+01  0.10000E+01  0.96548E-14
 -0.10000E+01 -0.83333E+00  0.55511E-16  0.10000E+01  0.10000E+01 -0.91724E-14
 -0.83333E+00 -0.83333E+00  0.55511E-16  0.10000E+01  0.10000E+01  0.23733E-13
 -0.66667E+00 -0.83333E+00 -0.27756E-16  0.10000E+01  0.10000E+01 -0.15623E-13
 -0.50000E+00 -0.83333E+00  0.34694E-16  0.10000E+01  0.10000E+01 -0.36078E-13
 -0.33333E+00 -0.83333E+00 -0.34694E-16  0.10000E+01  0.10000E+01 -0.23223E-13
 -0.16667E+00 -0.83333E+00  0.55511E-16  0.10000E+01  0.10000E+01  0.91689E-16
 -0.68081E-16 -0.83333E+00 -0.69389E-17  0.10000E+01  0.10000E+01  0.13251E-13
 -0.10000E+01 -0.66667E+00 -0.41633E-16  0.10000E+01  0.10000E+01 -0.94578E-14
 -0.83333E+00 -0.66667E+00 -0.69389E-17  0.10000E+01  0.10000E+01  0.93408E-14
 -0.66667E+00 -0.66667E+00 -0.13878E-15  0.10000E+01  0.10000E+01 -0.30882E-13
 -0.50000E+00 -0.66667E+00 -0.62450E-16  0.10000E+01  0.10000E+01 -0.37129E-13
 -0.33333E+00 -0.66667E+00 -0.20817E-16  0.10000E+01  0.10000E+01 -0.14665E-13
 -0.16667E+00 -0.66667E+00  0.48572E-16  0.10000E+01  0.10000E+01  0.57568E-15
 -0.13218E-15 -0.66667E+00  0.13878E-16  0.10000E+01  0.10000E+01  0.95682E-14
 -0.10000E+01 -0.50000E+00 -0.34694E-16  0.10000E+01  0.10000E+01 -0.65445E-14
 -0.83333E+00 -0.50000E+00 -0.41633E-16  0.10000E+01  0.10000E+01  0.65061E-14
 -0.66667E+00 -0.50000E+00 -0.20817E-16  0.10000E+01  0.10000E+01 -0.20708E-13
 -0.50000E+00 -0.50000E+00  0.00000E+00  0.10000E+01  0.10000E+01 -0.23662E-13
 -0.33333E+00 -0.50000E+00  0.41633E-16  0.10000E+01  0.10000E+01 -0.80823E-14
 -0.16667E+00 -0.50000E+00  0.97145E-16  0.10000E+01  0.10000E+01 -0.13897E-15
 -0.18934E-15 -0.50000E+00 -0.48572E-16  0.10000E+01  0.10000E+01  0.33629E-14
 -0.10000E+01 -0.33333E+00 -0.27756E-16  0.10000E+01  0.10000E+01 -0.30209E-14
 -0.83333E+00 -0.33333E+00 -0.48572E-16  0.10000E+01  0.10000E+01  0.26992E-14
 -0.66667E+00 -0.33333E+00 -0.11102E-15  0.10000E+01  0.10000E+01 -0.89474E-14
 -0.50000E+00 -0.33333E+00  0.13878E-16  0.10000E+01  0.10000E+01 -0.88923E-14
 -0.33333E+00 -0.33333E+00 -0.69389E-17  0.10000E+01  0.10000E+01 -0.13774E-14
 -0.16667E+00 -0.33333E+00  0.48572E-16  0.10000E+01  0.10000E+01  0.22603E-15
 -0.20942E-15 -0.33333E+00 -0.11102E-15  0.10000E+01  0.10000E+01 -0.24016E-14
 -0.10000E+01 -0.16667E+00  0.20817E-16  0.10000E+01  0.10000E+01 -0.60923E-15
 -0.83333E+00 -0.16667E+00  0.20817E-16  0.10000E+01  0.10000E+01 -0.30998E-14
 -0.66667E+00 -0.16667E+00  0.13878E-16  0.10000E+01  0.10000E+01 -0.40806E-14
 -0.50000E+00 -0.16667E+00  0.76328E-16  0.10000E+01  0.10000E+01  0.20950E-14
 -0.33333E+00 -0.16667E+00  0.76328E-16  0.10000E+01  0.10000E+01  0.66769E-14
 -0.16667E+00 -0.16667E+00  0.76328E-16  0.10000E+01  0.10000E+01  0.13516E-14
 -0.18196E-15 -0.16667E+00 -0.13878E-16  0.10000E+01  0.10000E+01 -0.69245E-14
 -0.10000E+01 -0.18998E-15  0.97145E-16  0.10000E+01  0.10000E+01 -0.36378E-15
 -0.83333E+00 -0.11142E-15  0.11102E-15  0.10000E+01  0.10000E+01  0.63540E-14
 -0.66667E+00 -0.15961E-15 -0.69389E-16  0.10000E+01  0.10000E+01  0.13984E-13
 -0.50000E+00 -0.27910E-15  0.13878E-16  0.10000E+01  0.10000E+01  0.16363E-13
 -0.33333E+00 -0.20570E-15 -0.11796E-15  0.10000E+01  0.10000E+01  0.10923E-13
 -0.16667E+00 -0.22111E-15  0.55511E-16  0.10000E+01  0.10000E+01 -0.67853E-15
 -0.59770E-16 -0.21313E-15 -0.16653E-15  0.10000E+01  0.10000E+01 -0.11939E-13
 -0.10000E+01 -0.10000E+01  0.16667E+00  0.10000E+01  0.10000E+01  0.13112E-13
 -0.83333E+00 -0.10000E+01  0.16667E+00  0.10000E+01  0.10000E+01  0.16632E-12
 -0.66667E+00 -0.10000E+01  0.16667E+00  0.10000E+01  0.10000E+01 -0.17109E-13
 -0.50000E+00 -0.10000E+01  0.16667E+00  0.10000E+01  0.10000E+01 -0.11408E-12
 -0.33333E+00 -0.10000E+01  0.16667E+00  0.10000E+01  0.10000E+01 -0.67074E-13
 -0.16667E+00 -0.10000E+01  0.16667E+00  0.10000E+01  0.10000E+01  0.12927E-13
 -0.13073E-15 -0.10000E+01  0.16667E+00  0.10000E+01  0.10000E+01  0.43554E-13
 -0.10000E+01 -0.83333E+00  0.16667E+00  0.10000E+01  0.10000E+01 -0.17056E-13
 -0.83333E+00 -0.83333E+00  0.16667E+00  0.10000E+01  0.10000E+01  0.15140E-12
 -0.66667E+00 -0.83333E+00  0.16667E+00  0.10000E+01  0.10000E+01  0.35690E-13
 -0.50000E+00 -0.83333E+00  0.16667E+00  0.10000E+01  0.10000E+01 -0.16700E-12
 -0.33333E+00 -0.83333E+00  0.16667E+00  0.10000E+01  0.10000E+01 -0.21139E-12
 -0.16667E+00 -0.83333E+00  0.16667E+00  0.10000E+01  0.10000E+01 -0.12965E-13
 -0.18795E-15 -0.83333E+00  0.16667E+00  0.10000E+01  0.10000E+01  0.14304E-12
 -0.10000E+01 -0.66667E+00  0.16667E+00  0.10000E+01  0.10000E+01  0.52376E-14
 -0.83333E+00 -0.66667E+00  0.16667E+00  0.10000E+01  0.10000E+01  0.95009E-13
 -0.66667E+00 -0.66667E+00  0.16667E+00  0.10000E+01  0.10000E+01  0.70009E-13
 -0.50000E+00 -0.66667E+00  0.16667E+00  0.10000E+01  0.10000E+01 -0.16439E-12
 -0.33333E+00 -0.66667E+00  0.16667E+00  0.10000E+01  0.10000E+01 -0.28716E-12
 -0.16667E+00 -0.66667E+00  0.16667E+00  0.10000E+01  0.10000E+01 -0.55682E-13
 -0.15435E-15 -0.66667E+00  0.16667E+00  0.10000E+01  0.10000E+01  0.20021E-12
 -0.10000E+01 -0.50000E+00  0.16667E+00  0.10000E+01  0.10000E+01  0.22130E-13
 -0.83333E+00 -0.50000E+00  0.16667E+00  0.10000E+01  0.10000E+01  0.40335E-13
 -0.66667E+00 -0.50000E+00  0.16667E+00  0.10000E+01  0.10000E+01  0.51087E-13
 -0.50000E+00 -0.50000E+00  0.16667E+00  0.10000E+01  0.10000E+01 -0.12993E-12
 -0.33333E+00 -0.50000E+00  0.16667E+00  0.10000E+01  0.10000E+01 -0.24227E-12
 -0.16667E+00 -0.50000E+00  0.16667E+00  0.10000E+01  0.10000E+01 -0.55296E-13
 -0.13439E-15 -0.50000E+00  0.16667E+00  0.10000E+01  0.10000E+01  0.15725E-12
 -0.10000E+01 -0.33333E+00  0.16667E+00  0.10000E+01  0.10000E+01  0.21205E-13
 -0.83333E+00 -0.33333E+00  0.16667E+00  0.10000E+01  0.10000E+01  0.16358E-14
 -0.66667E+00 -0.33333E+00  0.16667E+00  0.10000E+01  0.10000E+01  0.18585E-13
 -0.50000E+00 -0.33333E+00  0.16667E+00  0.10000E+01  0.10000E+01 -0.77656E-13
 -0.33333E+00 -0.33333E+00  0.16667E+00  0.10000E+01  0.10000E+01 -0.13773E-12
 -0.16667E+00 -0.33333E+00  0.16667E+00  0.10000E+01  0.10000E+01 -0.24157E-13
 -0.13187E-15 -0.33333E+00  0.16667E+00  0.10000E+01  0.10000E+01  0.77676E-13
 -0.10000E+01 -0.16667E+00  0.16667E+00  0.10000E+01  0.10000E+01  0.12781E-13
 -0.83333E+00 -0.16667E+00  0.16667E+00  0.10000E+01  0.10000E+01 -0.19481E-13
 -0.66667E+00 -0.16667E+00  0.16667E+00  0.10000E+01  0.10000E+01  0.61242E-14
 -0.50000E+00 -0.16667E+00  0.16667E+00  0.10000E+01  0.10000E+01 -0.25438E-13
 -0.33333E+00 -0.16667E+00  0.16667E+00  0.10000E+01  0.10000E+01 -0.48208E-13
 -0.16667E+00 -0.16667E+00  0.16667E+00  0.10000E+01  0.10000E+01  0.69265E-14
 -0.13142E-15 -0.16667E+00  0.16667E+00  0.10000E+01  0.10000E+01  0.34393E-13
 -0.10000E+01 -0.15355E-15  0.16667E+00  0.10000E+01  0.10000E+01  0.72032E-14
 -0.83333E+00 -0.18021E-15  0.16667E+00  0.10000E+01  0.10000E+01 -0.17783E-13
 -0.66667E+00 -0.10433E-15  0.16667E+00  0.10000E+01  0.10000E+01 -0.39184E-13
 -0.50000E+00 -0.16012E-15  0.16667E+00  0.10000E+01  0.10000E+01 -0.84259E-14
 -0.33333E+00 -0.96182E-16  0.16667E+00  0.10000E+01  0.10000E+01  0.37509E-13
 -0.16667E+00 -0.15871E-15  0.16667E+00  0.10000E+01  0.10000E+01  0.42494E-13
 -0.17991E-15 -0.10384E-15  0.16667E+00  0.10000E+01  0.10000E+01 -0.23384E-14
 -0.10000E+01 -0.10000E+01  0.33333E+00  0.10000E+01  0.10000E+01  0.94747E-15
 -0.83333E+00 -0.10000E+01  0.33333E+00  0.10000E+01  0.10000E+01  0.15508E-12
 -0.66667E+00 -0.10000E+01  0.33333E+00  0.10000E+01  0.10000E+01 -0.15888E-12
 -0.50000E+00 -0.10000E+01  0.33333E+00  0.10000E+01  0.10000E+01 -0.22637E-12
 -0.33333E+00 -0.10000E+01  0.33333E+00  0.10000E+01  0.10000E+01 -0.71976E-13
 -0.16667E+00 -0.10000E+01  0.33333E+00  0.10000E+01  0.10000E+01  0.37472E-13
 -0.99883E-16 -0.10000E+01  0.33333E+00  0.10000E+01  0.10000E+01  0.89828E-13
 -0.10000E+01 -0.83333E+00  0.33333E+00  0.10000E+01  0.10000E+01 -0.41496E-13
 -0.83333E+00 -0.83333E+00  0.33333E+00  0.10000E+01  0.10000E+01  0.85680E-13
 -0.66667E+00 -0.83333E+00  0.33333E+00  0.10000E+01  0.10000E+01 -0.10886E-12
 -0.50000E+00 -0.83333E+00  0.33333E+00  0.10000E+01  0.10000E+01 -0.25051E-12
 -0.33333E+00 -0.83333E+00  0.33333E+00  0.10000E+01  0.10000E+01 -0.21118E-12
 -0.16667E+00 -0.83333E+00  0.33333E+00  0.10000E+01  0.10000E+01 -0.32723E-13
 -0.14220E-15 -0.83333E+00  0.33333E+00  0.10000E+01  0.10000E+01  0.14977E-12
 -0.10000E+01 -0.66667E+00  0.33333E+00  0.10000E+01  0.10000E+01  0.34016E-14
 -0.83333E+00 -0.66667E+00  0.33333E+00  0.10000E+01  0.10000E+01  0.91523E-15
 -0.66667E+00 -0.66667E+00  0.33333E+00  0.10000E+01  0.10000E+01 -0.16272E-13
 -0.50000E+00 -0.66667E+00  0.33333E+00  0.10000E+01  0.10000E+01 -0.18994E-12
 -0.33333E+00 -0.66667E+00  0.33333E+00  0.10000E+01  0.10000E+01 -0.29835E-12
 -0.16667E+00 -0.66667E+00  0.33333E+00  0.10000E+01  0.10000E+01 -0.12542E-12
 -0.13934E-15 -0.66667E+00  0.33333E+00  0.10000E+01  0.10000E+01  0.17006E-12
 -0.10000E+01 -0.50000E+00  0.33333E+00  0.10000E+01  0.10000E+01  0.31356E-13
 -0.83333E+00 -0.50000E+00  0.33333E+00  0.10000E+01  0.10000E+01 -0.52182E-13
 -0.66667E+00 -0.50000E+00  0.33333E+00  0.10000E+01  0.10000E+01 -0.93081E-15
 -0.50000E+00 -0.50000E+00  0.33333E+00  0.10000E+01  0.10000E+01 -0.11697E-12
 -0.33333E+00 -0.50000E+00  0.33333E+00  0.10000E+01  0.10000E+01 -0.23822E-12
 -0.16667E+00 -0.50000E+00  0.33333E+00  0.10000E+01  0.10000E+01 -0.13222E-12
 -0.12303E-15 -0.50000E+00  0.33333E+00  0.10000E+01  0.10000E+01  0.11000E-12
 -0.10000E+01 -0.33333E+00  0.33333E+00  0.10000E+01  0.10000E+01  0.27918E-13
 -0.83333E+00 -0.33333E+00  0.33333E+00  0.10000E+01  0.10000E+01 -0.66446E-13
 -0.66667E+00 -0.33333E+00  0.33333E+00  0.10000E+01  0.10000E+01 -0.88216E-14
 -0.50000E+00 -0.33333E+00  0.33333E+00  0.10000E+01  0.10000E+01 -0.40744E-13
 -0.33333E+00 -0.33333E+00  0.33333E+00  0.10000E+01  0.10000E+01 -0.11061E-12
 -0.16667E+00 -0.33333E+00  0.33333E+00  0.10000E+01  0.10000E+01 -0.88080E-13
 -0.13927E-15 -0.33333E+00  0.33333E+00  0.10000E+01  0.10000E+01  0.21562E-13
 -0.10000E+01 -0.16667E+00  0.33333E+00  0.10000E+01  0.10000E+01  0.18293E-13
 -0.83333E+00 -0.16667E+00  0.33333E+00  0.10000E+01  0.10000E+01 -0.54890E-13
 -0.66667E+00 -0.16667E+00  0.33333E+00  0.10000E+01  0.10000E+01  0.19577E-13
 -0.50000E+00 -0.16667E+00  0.33333E+00  0.10000E+01  0.10000E+01  0.34315E-13
 -0.33333E+00 -0.16667E+00  0.33333E+00  0.10000E+01  0.10000E+01 -0.16382E-13
 -0.16667E+00 -0.16667E+00  0.33333E+00  0.10000E+01  0.10000E+01 -0.53748E-13
 -0.17758E-15 -0.16667E+00  0.33333E+00  0.10000E+01  0.10000E+01 -0.31743E-13
 -0.10000E+01 -0.10124E-15  0.33333E+00  0.10000E+01  0.10000E+01  0.17171E-13
 -0.83333E+00 -0.18056E-15  0.33333E+00  0.10000E+01  0.10000E+01 -0.31023E-13
 -0.66667E+00 -0.98299E-16  0.33333E+00  0.10000E+01  0.10000E+01 -0.19048E-13
 -0.50000E+00 -0.15699E-15  0.33333E+00  0.10000E+01  0.10000E+01  0.50049E-13
 -0.33333E+00 -0.15196E-15  0.33333E+00  0.10000E+01  0.10000E+01  0.76680E-13
 -0.16667E+00 -0.22852E-15  0.33333E+00  0.10000E+01  0.10000E+01  0.18013E-14
 -0.10036E-15 -0.13001E-15  0.33333E+00  0.10000E+01  0.10000E+01 -0.55996E-13
 -0.10000E+01 -0.10000E+01  0.50000E+00  0.10000E+01  0.10000E+01 -0.94031E-14
 -0.83333E+00 -0.10000E+01  0.50000E+00  0.10000E+01  0.10000E+01  0.14226E-12
 -0.66667E+00 -0.10000E+01  0.50000E+00  0.10000E+01  0.10000E+01 -0.26929E-12
 -0.50000E+00 -0.10000E+01  0.50000E+00  0.10000E+01  0.10000E+01 -0.30595E-12
 -0.33333E+00 -0.10000E+01  0.50000E+00  0.10000E+01  0.10000E+01 -0.69042E-13
 -0.16667E+00 -0.10000E+01  0.50000E+00  0.10000E+01  0.10000E+01  0.49017E-13
 -0.11254E-15 -0.10000E+01  0.50000E+00  0.10000E+01  0.10000E+01  0.11307E-12
 -0.10000E+01 -0.83333E+00  0.50000E+00  0.10000E+01  0.10000E+01 -0.69613E-13
 -0.83333E+00 -0.83333E+00  0.50000E+00  0.10000E+01  0.10000E+01  0.38961E-13
 -0.66667E+00 -0.83333E+00  0.50000E+00  0.10000E+01  0.10000E+01 -0.23245E-12
 -0.50000E+00 -0.83333E+00  0.50000E+00  0.10000E+01  0.10000E+01 -0.30958E-12
 -0.33333E+00 -0.83333E+00  0.50000E+00  0.10000E+01  0.10000E+01 -0.18975E-12
 -0.16667E+00 -0.83333E+00  0.50000E+00  0.10000E+01  0.10000E+01 -0.51553E-13
 -0.12278E-15 -0.83333E+00  0.50000E+00  0.10000E+01  0.10000E+01  0.13543E-12
 -0.10000E+01 -0.66667E+00  0.50000E+00  0.10000E+01  0.10000E+01 -0.13776E-13
 -0.83333E+00 -0.66667E+00  0.50000E+00  0.10000E+01  0.10000E+01 -0.67963E-13
 -0.66667E+00 -0.66667E+00  0.50000E+00  0.10000E+01  0.10000E+01 -0.11416E-12
 -0.50000E+00 -0.66667E+00  0.50000E+00  0.10000E+01  0.10000E+01 -0.20986E-12
 -0.33333E+00 -0.66667E+00  0.50000E+00  0.10000E+01  0.10000E+01 -0.26997E-12
 -0.16667E+00 -0.66667E+00  0.50000E+00  0.10000E+01  0.10000E+01 -0.17483E-12
 -0.13362E-15 -0.66667E+00  0.50000E+00  0.10000E+01  0.10000E+01  0.12182E-12
 -0.10000E+01 -0.50000E+00  0.50000E+00  0.10000E+01  0.10000E+01  0.21956E-13
 -0.83333E+00 -0.50000E+00  0.50000E+00  0.10000E+01  0.10000E+01 -0.11922E-12
 -0.66667E+00 -0.50000E+00  0.50000E+00  0.10000E+01  0.10000E+01 -0.74039E-13
 -0.50000E+00 -0.50000E+00  0.50000E+00  0.10000E+01  0.10000E+01 -0.10423E-12
 -0.33333E+00 -0.50000E+00  0.50000E+00  0.10000E+01  0.10000E+01 -0.18872E-12
 -0.16667E+00 -0.50000E+00  0.50000E+00  0.10000E+01  0.10000E+01 -0.17863E-12
 -0.12248E-15 -0.50000E+00  0.50000E+00  0.10000E+01  0.10000E+01  0.47561E-13
 -0.10000E+01 -0.33333E+00  0.50000E+00  0.10000E+01  0.10000E+01  0.19234E-13
 -0.83333E+00 -0.33333E+00  0.50000E+00  0.10000E+01  0.10000E+01 -0.11284E-12
 -0.66667E+00 -0.33333E+00  0.50000E+00  0.10000E+01  0.10000E+01 -0.54212E-13
 -0.50000E+00 -0.33333E+00  0.50000E+00  0.10000E+01  0.10000E+01 -0.36360E-14
 -0.33333E+00 -0.33333E+00  0.50000E+00  0.10000E+01  0.10000E+01 -0.40757E-13
 -0.16667E+00 -0.33333E+00  0.50000E+00  0.10000E+01  0.10000E+01 -0.11665E-12
 -0.14599E-15 -0.33333E+00  0.50000E+00  0.10000E+01  0.10000E+01 -0.44391E-13
 -0.10000E+01 -0.16667E+00  0.50000E+00  0.10000E+01  0.10000E+01  0.11563E-13
 -0.83333E+00 -0.16667E+00  0.50000E+00  0.10000E+01  0.10000E+01 -0.75779E-13
 -0.66667E+00 -0.16667E+00  0.50000E+00  0.10000E+01  0.10000E+01  0.11958E-13
 -0.50000E+00 -0.16667E+00  0.50000E+00  0.10000E+01  0.10000E+01  0.90951E-13
 -0.33333E+00 -0.16667E+00  0.50000E+00  0.10000E+01  0.10000E+01  0.55248E-13
 -0.16667E+00 -0.16667E+00  0.50000E+00  0.10000E+01  0.10000E+01 -0.74193E-13
 -0.19701E-15 -0.16667E+00  0.50000E+00  0.10000E+01  0.10000E+01 -0.10046E-12
 -0.10000E+01 -0.74600E-16  0.50000E+00  0.10000E+01  0.10000E+01  0.18349E-13
 -0.83333E+00 -0.18213E-15  0.50000E+00  0.10000E+01  0.10000E+01 -0.35518E-13
 -0.66667E+00 -0.94379E-16  0.50000E+00  0.10000E+01  0.10000E+01 -0.88629E-14
 -0.50000E+00 -0.16230E-15  0.50000E+00  0.10000E+01  0.10000E+01  0.11188E-12
 -0.33333E+00 -0.12539E-15  0.50000E+00  0.10000E+01  0.10000E+01  0.14858E-12
 -0.16667E+00 -0.25540E-15  0.50000E+00  0.10000E+01  0.10000E+01 -0.39574E-14
 -0.61730E-16 -0.12318E-15  0.50000E+00  0.10000E+01  0.10000E+01 -0.11341E-12
 -0.10000E+01 -0.10000E+01  0.66667E+00  0.10000E+01  0.10000E+01 -0.12832E-13
 -0.83333E+00 -0.10000E+01  0.66667E+00  0.10000E+01  0.10000E+01  0.13489E-12
 -0.66667E+00 -0.10000E+01  0.66667E+00  0.10000E+01  0.10000E+01 -0.33116E-12
 -0.50000E+00 -0.10000E+01  0.66667E+00  0.10000E+01  0.10000E+01 -0.34427E-12
 -0.33333E+00 -0.10000E+01  0.66667E+00  0.10000E+01  0.10000E+01 -0.60857E-13
 -0.16667E+00 -0.10000E+01  0.66667E+00  0.10000E+01  0.10000E+01  0.48757E-13
 -0.13560E-15 -0.10000E+01  0.66667E+00  0.10000E+01  0.10000E+01  0.10963E-12
 -0.10000E+01 -0.83333E+00  0.66667E+00  0.10000E+01  0.10000E+01 -0.82010E-13
 -0.83333E+00 -0.83333E+00  0.66667E+00  0.10000E+01  0.10000E+01  0.11181E-13
 -0.66667E+00 -0.83333E+00  0.66667E+00  0.10000E+01  0.10000E+01 -0.28676E-12
 -0.50000E+00 -0.83333E+00  0.66667E+00  0.10000E+01  0.10000E+01 -0.32908E-12
 -0.33333E+00 -0.83333E+00  0.66667E+00  0.10000E+01  0.10000E+01 -0.18251E-12
 -0.16667E+00 -0.83333E+00  0.66667E+00  0.10000E+01  0.10000E+01 -0.81886E-13
 -0.13519E-15 -0.83333E+00  0.66667E+00  0.10000E+01  0.10000E+01  0.11526E-12
 -0.10000E+01 -0.66667E+00  0.66667E+00  0.10000E+01  0.10000E+01 -0.18681E-13
 -0.83333E+00 -0.66667E+00  0.66667E+00  0.10000E+01  0.10000E+01 -0.11665E-12
 -0.66667E+00 -0.66667E+00  0.66667E+00  0.10000E+01  0.10000E+01 -0.15492E-12
 -0.50000E+00 -0.66667E+00  0.66667E+00  0.10000E+01  0.10000E+01 -0.20058E-12
 -0.33333E+00 -0.66667E+00  0.66667E+00  0.10000E+01  0.10000E+01 -0.25510E-12
 -0.16667E+00 -0.66667E+00  0.66667E+00  0.10000E+01  0.10000E+01 -0.22915E-12
 -0.13616E-15 -0.66667E+00  0.66667E+00  0.10000E+01  0.10000E+01  0.82438E-13
 -0.10000E+01 -0.50000E+00  0.66667E+00  0.10000E+01  0.10000E+01  0.21424E-13
 -0.83333E+00 -0.50000E+00  0.66667E+00  0.10000E+01  0.10000E+01 -0.17012E-12
 -0.66667E+00 -0.50000E+00  0.66667E+00  0.10000E+01  0.10000E+01 -0.10449E-12
 -0.50000E+00 -0.50000E+00  0.66667E+00  0.10000E+01  0.10000E+01 -0.68821E-13
 -0.33333E+00 -0.50000E+00  0.66667E+00  0.10000E+01  0.10000E+01 -0.14582E-12
 -0.16667E+00 -0.50000E+00  0.66667E+00  0.10000E+01  0.10000E+01 -0.22334E-12
 -0.12384E-15 -0.50000E+00  0.66667E+00  0.10000E+01  0.10000E+01 -0.40474E-14
 -0.10000E+01 -0.33333E+00  0.66667E+00  0.10000E+01  0.10000E+01  0.17287E-13
 -0.83333E+00 -0.33333E+00  0.66667E+00  0.10000E+01  0.10000E+01 -0.14867E-12
 -0.66667E+00 -0.33333E+00  0.66667E+00  0.10000E+01  0.10000E+01 -0.71188E-13
 -0.50000E+00 -0.33333E+00  0.66667E+00  0.10000E+01  0.10000E+01  0.51289E-13
 -0.33333E+00 -0.33333E+00  0.66667E+00  0.10000E+01  0.10000E+01  0.31805E-13
 -0.16667E+00 -0.33333E+00  0.66667E+00  0.10000E+01  0.10000E+01 -0.13459E-12
 -0.14034E-15 -0.33333E+00  0.66667E+00  0.10000E+01  0.10000E+01 -0.10035E-12
 -0.10000E+01 -0.16667E+00  0.66667E+00  0.10000E+01  0.10000E+01  0.77926E-14
 -0.83333E+00 -0.16667E+00  0.66667E+00  0.10000E+01  0.10000E+01 -0.90998E-13
 -0.66667E+00 -0.16667E+00  0.66667E+00  0.10000E+01  0.10000E+01  0.14689E-13
 -0.50000E+00 -0.16667E+00  0.66667E+00  0.10000E+01  0.10000E+01  0.15797E-12
 -0.33333E+00 -0.16667E+00  0.66667E+00  0.10000E+01  0.10000E+01  0.14039E-12
 -0.16667E+00 -0.16667E+00  0.66667E+00  0.10000E+01  0.10000E+01 -0.72517E-13
 -0.18149E-15 -0.16667E+00  0.66667E+00  0.10000E+01  0.10000E+01 -0.15567E-12
 -0.10000E+01 -0.80855E-16  0.66667E+00  0.10000E+01  0.10000E+01  0.16907E-13
 -0.83333E+00 -0.17681E-15  0.66667E+00  0.10000E+01  0.10000E+01 -0.36383E-13
 -0.66667E+00 -0.10117E-15  0.66667E+00  0.10000E+01  0.10000E+01  0.57857E-15
 -0.50000E+00 -0.15836E-15  0.66667E+00  0.10000E+01  0.10000E+01  0.18063E-12
 -0.33333E+00 -0.97141E-16  0.66667E+00  0.10000E+01  0.10000E+01  0.24121E-12
 -0.16667E+00 -0.23539E-15  0.66667E+00  0.10000E+01  0.10000E+01  0.14173E-13
 -0.93627E-16 -0.12324E-15  0.66667E+00  0.10000E+01  0.10000E+01 -0.16444E-12
 -0.10000E+01 -0.10000E+01  0.83333E+00  0.10000E+01  0.10000E+01 -0.14390E-13
 -0.83333E+00 -0.10000E+01  0.83333E+00  0.10000E+01  0.10000E+01  0.11737E-12
 -0.66667E+00 -0.10000E+01  0.83333E+00  0.10000E+01  0.10000E+01 -0.35721E-12
 -0.50000E+00 -0.10000E+01  0.83333E+00  0.10000E+01  0.10000E+01 -0.34548E-12
 -0.33333E+00 -0.10000E+01  0.83333E+00  0.10000E+01  0.10000E+01 -0.44384E-13
 -0.16667E+00 -0.10000E+01  0.83333E+00  0.10000E+01  0.10000E+01  0.42474E-13
 -0.12443E-15 -0.10000E+01  0.83333E+00  0.10000E+01  0.10000E+01  0.87852E-13
 -0.10000E+01 -0.83333E+00  0.83333E+00  0.10000E+01  0.10000E+01 -0.75608E-13
 -0.83333E+00 -0.83333E+00  0.83333E+00  0.10000E+01  0.10000E+01 -0.39261E-13
 -0.66667E+00 -0.83333E+00  0.83333E+00  0.10000E+01  0.10000E+01 -0.30242E-12
 -0.50000E+00 -0.83333E+00  0.83333E+00  0.10000E+01  0.10000E+01 -0.30191E-12
 -0.33333E+00 -0.83333E+00  0.83333E+00  0.10000E+01  0.10000E+01 -0.16595E-12
 -0.16667E+00 -0.83333E+00  0.83333E+00  0.10000E+01  0.10000E+01 -0.12552E-12
 -0.13147E-15 -0.83333E+00  0.83333E+00  0.10000E+01  0.10000E+01  0.74224E-13
 -0.10000E+01 -0.66667E+00  0.83333E+00  0.10000E+01  0.10000E+01 -0.26083E-14
 -0.83333E+00 -0.66667E+00  0.83333E+00  0.10000E+01  0.10000E+01 -0.18534E-12
 -0.66667E+00 -0.66667E+00  0.83333E+00  0.10000E+01  0.10000E+01 -0.15106E-12
 -0.50000E+00 -0.66667E+00  0.83333E+00  0.10000E+01  0.10000E+01 -0.13639E-12
 -0.33333E+00 -0.66667E+00  0.83333E+00  0.10000E+01  0.10000E+01 -0.22536E-12
 -0.16667E+00 -0.66667E+00  0.83333E+00  0.10000E+01  0.10000E+01 -0.29813E-12
 -0.13324E-15 -0.66667E+00  0.83333E+00  0.10000E+01  0.10000E+01  0.20293E-13
 -0.10000E+01 -0.50000E+00  0.83333E+00  0.10000E+01  0.10000E+01  0.38685E-13
 -0.83333E+00 -0.50000E+00  0.83333E+00  0.10000E+01  0.10000E+01 -0.23501E-12
 -0.66667E+00 -0.50000E+00  0.83333E+00  0.10000E+01  0.10000E+01 -0.89404E-13
 -0.50000E+00 -0.50000E+00  0.83333E+00  0.10000E+01  0.10000E+01  0.20295E-13
 -0.33333E+00 -0.50000E+00  0.83333E+00  0.10000E+01  0.10000E+01 -0.88476E-13
 -0.16667E+00 -0.50000E+00  0.83333E+00  0.10000E+01  0.10000E+01 -0.28301E-12
 -0.12851E-15 -0.50000E+00  0.83333E+00  0.10000E+01  0.10000E+01 -0.72720E-13
 -0.10000E+01 -0.33333E+00  0.83333E+00  0.10000E+01  0.10000E+01  0.29158E-13
 -0.83333E+00 -0.33333E+00  0.83333E+00  0.10000E+01  0.10000E+01 -0.19259E-12
 -0.66667E+00 -0.33333E+00  0.83333E+00  0.10000E+01  0.10000E+01 -0.48506E-13
 -0.50000E+00 -0.33333E+00  0.83333E+00  0.10000E+01  0.10000E+01  0.15105E-12
 -0.33333E+00 -0.33333E+00  0.83333E+00  0.10000E+01  0.10000E+01  0.11551E-12
 -0.16667E+00 -0.33333E+00  0.83333E+00  0.10000E+01  0.10000E+01 -0.16588E-12
 -0.13619E-15 -0.33333E+00  0.83333E+00  0.10000E+01  0.10000E+01 -0.16409E-12
 -0.10000E+01 -0.16667E+00  0.83333E+00  0.10000E+01  0.10000E+01  0.13658E-13
 -0.83333E+00 -0.16667E+00  0.83333E+00  0.10000E+01  0.10000E+01 -0.10811E-12
 -0.66667E+00 -0.16667E+00  0.83333E+00  0.10000E+01  0.10000E+01  0.47665E-13
 -0.50000E+00 -0.16667E+00  0.83333E+00  0.10000E+01  0.10000E+01  0.25888E-12
 -0.33333E+00 -0.16667E+00  0.83333E+00  0.10000E+01  0.10000E+01  0.23540E-12
 -0.16667E+00 -0.16667E+00  0.83333E+00  0.10000E+01  0.10000E+01 -0.80322E-13
 -0.15959E-15 -0.16667E+00  0.83333E+00  0.10000E+01  0.10000E+01 -0.21259E-12
 -0.10000E+01 -0.10447E-15  0.83333E+00  0.10000E+01  0.10000E+01  0.18146E-13
 -0.83333E+00 -0.15225E-15  0.83333E+00  0.10000E+01  0.10000E+01 -0.32764E-13
 -0.66667E+00 -0.12528E-15  0.83333E+00  0.10000E+01  0.10000E+01  0.34081E-13
 -0.50000E+00 -0.15968E-15  0.83333E+00  0.10000E+01  0.10000E+01  0.27331E-12
 -0.33333E+00 -0.15373E-15  0.83333E+00  0.10000E+01  0.10000E+01  0.33931E-12
 -0.16667E+00 -0.21483E-15  0.83333E+00  0.10000E+01  0.10000E+01  0.22301E-13
 -0.15060E-15 -0.17433E-15  0.83333E+00  0.10000E+01  0.10000E+01 -0.21557E-12
 -0.10000E+01 -0.10000E+01  0.10000E+01  0.10000E+01  0.10000E+01 -0.15427E-13
 -0.83333E+00 -0.10000E+01  0.10000E+01  0.10000E+01  0.10000E+01  0.13084E-12
 -0.66667E+00 -0.10000E+01  0.10000E+01  0.10000E+01  0.10000E+01 -0.33227E-12
 -0.50000E+00 -0.10000E+01  0.10000E+01  0.10000E+01  0.10000E+01 -0.31365E-12
 -0.33333E+00 -0.10000E+01  0.10000E+01  0.10000E+01  0.10000E+01 -0.25888E-13
 -0.16667E+00 -0.10000E+01  0.10000E+01  0.10000E+01  0.10000E+01  0.24773E-13
 -0.14601E-15 -0.10000E+01  0.10000E+01  0.10000E+01  0.10000E+01  0.48440E-13
 -0.10000E+01 -0.83333E+00  0.10000E+01  0.10000E+01  0.10000E+01 -0.86497E-13
 -0.83333E+00 -0.83333E+00  0.10000E+01  0.10000E+01  0.10000E+01 -0.24586E-13
 -0.66667E+00 -0.83333E+00  0.10000E+01  0.10000E+01  0.10000E+01 -0.29936E-12
 -0.50000E+00 -0.83333E+00  0.10000E+01  0.10000E+01  0.10000E+01 -0.27520E-12
 -0.33333E+00 -0.83333E+00  0.10000E+01  0.10000E+01  0.10000E+01 -0.13039E-12
 -0.16667E+00 -0.83333E+00  0.10000E+01  0.10000E+01  0.10000E+01 -0.14294E-12
 -0.14314E-15 -0.83333E+00  0.10000E+01  0.10000E+01  0.10000E+01  0.23512E-13
 -0.10000E+01 -0.66667E+00  0.10000E+01  0.10000E+01  0.10000E+01 -0.21082E-13
 -0.83333E+00 -0.66667E+00  0.10000E+01  0.10000E+01  0.10000E+01 -0.17458E-12
 -0.66667E+00 -0.66667E+00  0.10000E+01  0.10000E+01  0.10000E+01 -0.17074E-12
 -0.50000E+00 -0.66667E+00  0.10000E+01  0.10000E+01  0.10000E+01 -0.10679E-12
 -0.33333E+00 -0.66667E+00  0.10000E+01  0.10000E+01  0.10000E+01 -0.15813E-12
 -0.16667E+00 -0.66667E+00  0.10000E+01  0.10000E+01  0.10000E+01 -0.30141E-12
 -0.13322E-15 -0.66667E+00  0.10000E+01  0.10000E+01  0.10000E+01 -0.37629E-13
 -0.10000E+01 -0.50000E+00  0.10000E+01  0.10000E+01  0.10000E+01  0.18868E-13
 -0.83333E+00 -0.50000E+00  0.10000E+01  0.10000E+01  0.10000E+01 -0.22450E-12
 -0.66667E+00 -0.50000E+00  0.10000E+01  0.10000E+01  0.10000E+01 -0.10871E-12
 -0.50000E+00 -0.50000E+00  0.10000E+01  0.10000E+01  0.10000E+01  0.68082E-13
 -0.33333E+00 -0.50000E+00  0.10000E+01  0.10000E+01  0.10000E+01  0.97946E-14
 -0.16667E+00 -0.50000E+00  0.10000E+01  0.10000E+01  0.10000E+01 -0.26895E-12
 -0.13461E-15 -0.50000E+00  0.10000E+01  0.10000E+01  0.10000E+01 -0.13426E-12
 -0.10000E+01 -0.33333E+00  0.10000E+01  0.10000E+01  0.10000E+01  0.11802E-13
 -0.83333E+00 -0.33333E+00  0.10000E+01  0.10000E+01  0.10000E+01 -0.17859E-12
 -0.66667E+00 -0.33333E+00  0.10000E+01  0.10000E+01  0.10000E+01 -0.54684E-13
 -0.50000E+00 -0.33333E+00  0.10000E+01  0.10000E+01  0.10000E+01  0.21836E-12
 -0.33333E+00 -0.33333E+00  0.10000E+01  0.10000E+01  0.10000E+01  0.23506E-12
 -0.16667E+00 -0.33333E+00  0.10000E+01  0.10000E+01  0.10000E+01 -0.13338E-12
 -0.12452E-15 -0.33333E+00  0.10000E+01  0.10000E+01  0.10000E+01 -0.22212E-12
 -0.10000E+01 -0.16667E+00  0.10000E+01  0.10000E+01  0.10000E+01 -0.79135E-15
 -0.83333E+00 -0.16667E+00  0.10000E+01  0.10000E+01  0.10000E+01 -0.89712E-13
 -0.66667E+00 -0.16667E+00  0.10000E+01  0.10000E+01  0.10000E+01  0.51972E-13
 -0.50000E+00 -0.16667E+00  0.10000E+01  0.10000E+01  0.10000E+01  0.33330E-12
 -0.33333E+00 -0.16667E+00  0.10000E+01  0.10000E+01  0.10000E+01  0.36129E-12
 -0.16667E+00 -0.16667E+00  0.10000E+01  0.10000E+01  0.10000E+01 -0.31613E-13
 -0.11820E-15 -0.16667E+00  0.10000E+01  0.10000E+01  0.10000E+01 -0.26012E-12
 -0.10000E+01 -0.11871E-15  0.10000E+01  0.10000E+01  0.10000E+01  0.82675E-14
 -0.83333E+00 -0.16534E-15  0.10000E+01  0.10000E+01  0.10000E+01 -0.89100E-14
 -0.66667E+00 -0.11355E-15  0.10000E+01  0.10000E+01  0.10000E+01  0.55175E-13
 -0.50000E+00 -0.15542E-15  0.10000E+01  0.10000E+01  0.10000E+01  0.35041E-12
 -0.33333E+00 -0.65065E-16  0.10000E+01  0.10000E+01  0.10000E+01  0.45333E-12
 -0.16667E+00 -0.16950E-15  0.10000E+01  0.10000E+01  0.10000E+01  0.70686E-13
 -0.24807E-15 -0.12074E-15  0.10000E+01  0.10000E+01  0.10000E+01 -0.25712E-12
 ZONE I=           7 ,J=           7 ,K=           7 , F=POINT
 -0.76714E-16 -0.10000E+01 -0.20123E-15  0.10000E+01  0.10000E+01  0.28663E-14
  0.16667E+00 -0.10000E+01 -0.34694E-16  0.10000E+01  0.10000E+01  0.35104E-13
  0.33333E+00 -0.10000E+01  0.34694E-16  0.10000E+01  0.10000E+01  0.13269E-13
  0.50000E+00 -0.10000E+01  0.15959E-15  0.10000E+01  0.10000E+01  0.33287E-14
  0.66667E+00 -0.10000E+01 -0.69389E-17  0.10000E+01  0.10000E+01  0.10140E-13
  0.83333E+00 -0.10000E+01 -0.20817E-16  0.10000E+01  0.10000E+01  0.15681E-13
  0.10000E+01 -0.10000E+01 -0.34694E-16  0.10000E+01  0.10000E+01  0.17270E-13
 -0.12723E-15 -0.83333E+00  0.55511E-16  0.10000E+01  0.10000E+01  0.14873E-13
  0.16667E+00 -0.83333E+00  0.55511E-16  0.10000E+01  0.10000E+01  0.36261E-14
  0.33333E+00 -0.83333E+00 -0.27756E-16  0.10000E+01  0.10000E+01 -0.78302E-14
  0.50000E+00 -0.83333E+00  0.34694E-16  0.10000E+01  0.10000E+01 -0.12653E-13
  0.66667E+00 -0.83333E+00 -0.34694E-16  0.10000E+01  0.10000E+01 -0.54340E-14
  0.83333E+00 -0.83333E+00  0.55511E-16  0.10000E+01  0.10000E+01  0.10551E-13
  0.10000E+01 -0.83333E+00 -0.69389E-17  0.10000E+01  0.10000E+01  0.16104E-13
 -0.29262E-16 -0.66667E+00 -0.41633E-16  0.10000E+01  0.10000E+01  0.14556E-13
  0.16667E+00 -0.66667E+00 -0.69389E-17  0.10000E+01  0.10000E+01 -0.93548E-14
  0.33333E+00 -0.66667E+00 -0.13878E-15  0.10000E+01  0.10000E+01 -0.10956E-13
  0.50000E+00 -0.66667E+00 -0.62450E-16  0.10000E+01  0.10000E+01 -0.11393E-13
  0.66667E+00 -0.66667E+00 -0.20817E-16  0.10000E+01  0.10000E+01 -0.72342E-14
  0.83333E+00 -0.66667E+00  0.48572E-16  0.10000E+01  0.10000E+01  0.67102E-14
  0.10000E+01 -0.66667E+00  0.13878E-16  0.10000E+01  0.10000E+01  0.14570E-13
  0.20947E-16 -0.50000E+00 -0.34694E-16  0.10000E+01  0.10000E+01  0.70609E-14
  0.16667E+00 -0.50000E+00 -0.41633E-16  0.10000E+01  0.10000E+01 -0.10574E-13
  0.33333E+00 -0.50000E+00 -0.20817E-16  0.10000E+01  0.10000E+01 -0.87229E-14
  0.50000E+00 -0.50000E+00  0.00000E+00  0.10000E+01  0.10000E+01 -0.65098E-14
  0.66667E+00 -0.50000E+00  0.41633E-16  0.10000E+01  0.10000E+01 -0.28773E-14
  0.83333E+00 -0.50000E+00  0.97145E-16  0.10000E+01  0.10000E+01  0.59167E-14
  0.10000E+01 -0.50000E+00 -0.48572E-16  0.10000E+01  0.10000E+01  0.88043E-14
  0.16848E-16 -0.33333E+00 -0.27756E-16  0.10000E+01  0.10000E+01 -0.63787E-15
  0.16667E+00 -0.33333E+00 -0.48572E-16  0.10000E+01  0.10000E+01 -0.10180E-13
  0.33333E+00 -0.33333E+00 -0.11102E-15  0.10000E+01  0.10000E+01 -0.70336E-14