  TITLE = "Generic solution"                                                                                                         
  VARIABLES = "x","y","z","Q1","Q2","Q3"                                                                                             
 ZONE I=           7 ,J=           7 ,K=           7 , F=POINT
 -0.10000E+01 -0.10000E+01 -0.20123E-15  0.10000E+01  0.10000E+01 -0.11641E-13
 -0.83333E+00 -0.10000E+01 -0.34694E-16  0.10000E+01  0.10000E+01  0.50407E-13
 -0.66667E+00 -0.10000E+01  0.34694E-16  0.10000E+01  0.10000E+01  0.21238E-12
 -0.50000E+00 -0.10000E+01  0.15959E-15  0.10000E+01  0.10000E+01  0.29906E-12
 -0.33333E+00 -0.10000E+01 -0.69389E-17  0.10000E+01  0.10000E+01  0.26702E-12
 -0.16667E+00 -0.10000E+01 -0.20817E-16  0.10000E+01  0.10000E+01  0.17455E-12
 -0.10342E-15 -0.10000E+01 -0.34694E-16  0.10000E+01  0.10000E+01  0.15159E-12
 -0.10000E+01 -0.83333E+00  0.55511E-16  0.10000E+01  0.10000E+01 -0.15148E-13
 -0.83333E+00 -0.83333E+00  0.55511E-16  0.10000E+01  0.10000E+01  0.16537E-12
 -0.66667E+00 -0.83333E+00 -0.27756E-16  0.10000E+01  0.10000E+01  0.23738E-12
 -0.50000E+00 -0.83333E+00  0.34694E-16  0.10000E+01  0.10000E+01  0.24921E-12
 -0.33333E+00 -0.83333E+00 -0.34694E-16  0.10000E+01  0.10000E+01  0.26099E-12
 -0.16667E+00 -0.83333E+00  0.55511E-16  0.10000E+01  0.10000E+01  0.27580E-12
 -0.68081E-16 -0.83333E+00 -0.69389E-17  0.10000E+01  0.10000E+01  0.17096E-12
 -0.10000E+01 -0.66667E+00 -0.41633E-16  0.10000E+01  0.10000E+01 -0.25805E-13
 -0.83333E+00 -0.66667E+00 -0.69389E-17  0.10000E+01  0.10000E+01  0.19528E-12
 -0.66667E+00 -0.66667E+00 -0.13878E-15  0.10000E+01  0.10000E+01  0.26084E-12
 -0.50000E+00 -0.66667E+00 -0.62450E-16  0.10000E+01  0.10000E+01  0.23222E-12
 -0.33333E+00 -0.66667E+00 -0.20817E-16  0.10000E+01  0.10000E+01  0.21288E-12
 -0.16667E+00 -0.66667E+00  0.48572E-16  0.10000E+01  0.10000E+01  0.23841E-12
 -0.13218E-15 -0.66667E+00  0.13878E-16  0.10000E+01  0.10000E+01  0.16649E-12
 -0.10000E+01 -0.50000E+00 -0.34694E-16  0.10000E+01  0.10000E+01 -0.21354E-13
 -0.83333E+00 -0.50000E+00 -0.41633E-16  0.10000E+01  0.10000E+01  0.16694E-12
 -0.66667E+00 -0.50000E+00 -0.20817E-16  0.10000E+01  0.10000E+01  0.23301E-12
 -0.50000E+00 -0.50000E+00  0.00000E+00  0.10000E+01  0.10000E+01  0.20506E-12
 -0.33333E+00 -0.50000E+00  0.41633E-16  0.10000E+01  0.10000E+01  0.16801E-12
 -0.16667E+00 -0.50000E+00  0.97145E-16  0.10000E+01  0.10000E+01  0.16524E-12
 -0.18934E-15 -0.50000E+00 -0.48572E-16  0.10000E+01  0.10000E+01  0.10034E-12
 -0.10000E+01 -0.33333E+00 -0.27756E-16  0.10000E+01  0.10000E+01 -0.83490E-14
 -0.83333E+00 -0.33333E+00 -0.48572E-16  0.10000E+01  0.10000E+01  0.10626E-12
 -0.66667E+00 -0.33333E+00 -0.11102E-15  0.10000E+01  0.10000E+01  0.16460E-12
 -0.50000E+00 -0.33333E+00  0.13878E-16  0.10000E+01  0.10000E+01  0.16244E-12
 -0.33333E+00 -0.33333E+00 -0.69389E-17  0.10000E+01  0.10000E+01  0.13218E-12
 -0.16667E+00 -0.33333E+00  0.48572E-16  0.10000E+01  0.10000E+01  0.94286E-13
 -0.20942E-15 -0.33333E+00 -0.11102E-15  0.10000E+01  0.10000E+01  0.86536E-14
 -0.10000E+01 -0.16667E+00  0.20817E-16  0.10000E+01  0.10000E+01  0.17929E-15
 -0.83333E+00 -0.16667E+00  0.20817E-16  0.10000E+01  0.10000E+01  0.38074E-13
 -0.66667E+00 -0.16667E+00  0.13878E-16  0.10000E+01  0.10000E+01  0.87843E-13
 -0.50000E+00 -0.16667E+00  0.76328E-16  0.10000E+01  0.10000E+01  0.11488E-12
 -0.33333E+00 -0.16667E+00  0.76328E-16  0.10000E+01  0.10000E+01  0.98451E-13
 -0.16667E+00 -0.16667E+00  0.76328E-16  0.10000E+01  0.10000E+01  0.35020E-13
 -0.18196E-15 -0.16667E+00 -0.13878E-16  0.10000E+01  0.10000E+01 -0.58384E-13
 -0.10000E+01 -0.18998E-15  0.97145E-16  0.10000E+01  0.10000E+01  0.70502E-14
 -0.83333E+00 -0.11142E-15  0.11102E-15  0.10000E+01  0.10000E+01 -0.13933E-13
 -0.66667E+00 -0.15961E-15 -0.69389E-16  0.10000E+01  0.10000E+01  0.17447E-13
 -0.50000E+00 -0.27910E-15  0.13878E-16  0.10000E+01  0.10000E+01  0.66848E-13
 -0.33333E+00 -0.20570E-15 -0.11796E-15  0.10000E+01  0.10000E+01  0.73946E-13
 -0.16667E+00 -0.22111E-15  0.55511E-16  0.10000E+01  0.10000E+01  0.46678E-14
 -0.59770E-16 -0.21313E-15 -0.16653E-15  0.10000E+01  0.10000E+01 -0.96581E-13
 -0.10000E+01 -0.10000E+01  0.16667E+00  0.10000E+01  0.10000E+01  0.74867E-14
 -0.83333E+00 -0.10000E+01  0.16667E+00  0.10000E+01  0.10000E+01  0.26900E-12
 -0.66667E+00 -0.10000E+01  0.16667E+00  0.10000E+01  0.10000E+01  0.39569E-12
 -0.50000E+00 -0.10000E+01  0.16667E+00  0.10000E+01  0.10000E+01  0.32388E-12
 -0.33333E+00 -0.10000E+01  0.16667E+00  0.10000E+01  0.10000E+01  0.16975E-12
 -0.16667E+00 -0.10000E+01  0.16667E+00  0.10000E+01  0.10000E+01  0.93261E-13
 -0.13073E-15 -0.10000E+01  0.16667E+00  0.10000E+01  0.10000E+01  0.16201E-12
 -0.10000E+01 -0.83333E+00  0.16667E+00  0.10000E+01  0.10000E+01 -0.33854E-13
 -0.83333E+00 -0.83333E+00  0.16667E+00  0.10000E+01  0.10000E+01  0.40144E-12
 -0.66667E+00 -0.83333E+00  0.16667E+00  0.10000E+01  0.10000E+01  0.37765E-12
 -0.50000E+00 -0.83333E+00  0.16667E+00  0.10000E+01  0.10000E+01  0.17718E-12
 -0.33333E+00 -0.83333E+00  0.16667E+00  0.10000E+01  0.10000E+01  0.96956E-13
 -0.16667E+00 -0.83333E+00  0.16667E+00  0.10000E+01  0.10000E+01  0.23140E-12
 -0.18795E-15 -0.83333E+00  0.16667E+00  0.10000E+01  0.10000E+01  0.25541E-12
 -0.10000E+01 -0.66667E+00  0.16667E+00  0.10000E+01  0.10000E+01 -0.34512E-13
 -0.83333E+00 -0.66667E+00  0.16667E+00  0.10000E+01  0.10000E+01  0.36735E-12
 -0.66667E+00 -0.66667E+00  0.16667E+00  0.10000E+01  0.10000E+01  0.34865E-12
 -0.50000E+00 -0.66667E+00  0.16667E+00  0.10000E+01  0.10000E+01  0.13943E-12
 -0.33333E+00 -0.66667E+00  0.16667E+00  0.10000E+01  0.10000E+01  0.41515E-13
 -0.16667E+00 -0.66667E+00  0.16667E+00  0.10000E+01  0.10000E+01  0.17750E-12
 -0.15435E-15 -0.66667E+00  0.16667E+00  0.10000E+01  0.10000E+01  0.23983E-12
 -0.10000E+01 -0.50000E+00  0.16667E+00  0.10000E+01  0.10000E+01 -0.23988E-13
 -0.83333E+00 -0.50000E+00  0.16667E+00  0.10000E+01  0.10000E+01  0.25546E-12
 -0.66667E+00 -0.50000E+00  0.16667E+00  0.10000E+01  0.10000E+01  0.25647E-12
 -0.50000E+00 -0.50000E+00  0.16667E+00  0.10000E+01  0.10000E+01  0.11440E-12
 -0.33333E+00 -0.50000E+00  0.16667E+00  0.10000E+01  0.10000E+01  0.35518E-13
 -0.16667E+00 -0.50000E+00  0.16667E+00  0.10000E+01  0.10000E+01  0.11244E-12
 -0.13439E-15 -0.50000E+00  0.16667E+00  0.10000E+01  0.10000E+01  0.13955E-12
 -0.10000E+01 -0.33333E+00  0.16667E+00  0.10000E+01  0.10000E+01 -0.11012E-13
 -0.83333E+00 -0.33333E+00  0.16667E+00  0.10000E+01  0.10000E+01  0.11504E-12
 -0.66667E+00 -0.33333E+00  0.16667E+00  0.10000E+01  0.10000E+01  0.12963E-12
 -0.50000E+00 -0.33333E+00  0.16667E+00  0.10000E+01  0.10000E+01  0.89667E-13
 -0.33333E+00 -0.33333E+00  0.16667E+00  0.10000E+01  0.10000E+01  0.65167E-13
 -0.16667E+00 -0.33333E+00  0.16667E+00  0.10000E+01  0.10000E+01  0.73670E-13
 -0.13187E-15 -0.33333E+00  0.16667E+00  0.10000E+01  0.10000E+01  0.14632E-13
 -0.10000E+01 -0.16667E+00  0.16667E+00  0.10000E+01  0.10000E+01  0.30387E-14
 -0.83333E+00 -0.16667E+00  0.16667E+00  0.10000E+01  0.10000E+01 -0.19065E-13
 -0.66667E+00 -0.16667E+00  0.16667E+00  0.10000E+01  0.10000E+01  0.18948E-13
 -0.50000E+00 -0.16667E+00  0.16667E+00  0.10000E+01  0.10000E+01  0.78371E-13
 -0.33333E+00 -0.16667E+00  0.16667E+00  0.10000E+01  0.10000E+01  0.10016E-12
 -0.16667E+00 -0.16667E+00  0.16667E+00  0.10000E+01  0.10000E+01  0.42773E-13
 -0.13142E-15 -0.16667E+00  0.16667E+00  0.10000E+01  0.10000E+01 -0.80046E-13
 -0.10000E+01 -0.15355E-15  0.16667E+00  0.10000E+01  0.10000E+01  0.10715E-13
 -0.83333E+00 -0.18021E-15  0.16667E+00  0.10000E+01  0.10000E+01 -0.10136E-12
 -0.66667E+00 -0.10433E-15  0.16667E+00  0.10000E+01  0.10000E+01 -0.60754E-13
 -0.50000E+00 -0.16012E-15  0.16667E+00  0.10000E+01  0.10000E+01  0.61012E-13
 -0.33333E+00 -0.96182E-16  0.16667E+00  0.10000E+01  0.10000E+01  0.12310E-12
 -0.16667E+00 -0.15871E-15  0.16667E+00  0.10000E+01  0.10000E+01  0.32996E-13
 -0.17991E-15 -0.10384E-15  0.16667E+00  0.10000E+01  0.10000E+01 -0.13585E-12
 -0.10000E+01 -0.10000E+01  0.33333E+00  0.10000E+01  0.10000E+01  0.53828E-13
 -0.83333E+00 -0.10000E+01  0.33333E+00  0.10000E+01  0.10000E+01  0.45812E-12
 -0.66667E+00 -0.10000E+01  0.33333E+00  0.10000E+01  0.10000E+01  0.52054E-12
 -0.50000E+00 -0.10000E+01  0.33333E+00  0.10000E+01  0.10000E+01  0.29761E-12
 -0.33333E+00 -0.10000E+01  0.33333E+00  0.10000E+01  0.10000E+01  0.48629E-13
 -0.16667E+00 -0.10000E+01  0.33333E+00  0.10000E+01  0.10000E+01  0.93642E-14
 -0.99883E-16 -0.10000E+01  0.33333E+00  0.10000E+01  0.10000E+01  0.16581E-12
 -0.10000E+01 -0.83333E+00  0.33333E+00  0.10000E+01  0.10000E+01 -0.54211E-13
 -0.83333E+00 -0.83333E+00  0.33333E+00  0.10000E+01  0.10000E+01  0.58519E-12
 -0.66667E+00 -0.83333E+00  0.33333E+00  0.10000E+01  0.10000E+01  0.48039E-12
 -0.50000E+00 -0.83333E+00  0.33333E+00  0.10000E+01  0.10000E+01  0.75983E-13
 -0.33333E+00 -0.83333E+00  0.33333E+00  0.10000E+01  0.10000E+01 -0.10377E-12
 -0.16667E+00 -0.83333E+00  0.33333E+00  0.10000E+01  0.10000E+01  0.15284E-12
 -0.14220E-15 -0.83333E+00  0.33333E+00  0.10000E+01  0.10000E+01  0.35277E-12
 -0.10000E+01 -0.66667E+00  0.33333E+00  0.10000E+01  0.10000E+01 -0.46675E-13
 -0.83333E+00 -0.66667E+00  0.33333E+00  0.10000E+01  0.10000E+01  0.47761E-12
 -0.66667E+00 -0.66667E+00  0.33333E+00  0.10000E+01  0.10000E+01  0.39505E-12
 -0.50000E+00 -0.66667E+00  0.33333E+00  0.10000E+01  0.10000E+01  0.26245E-13
 -0.33333E+00 -0.66667E+00  0.33333E+00  0.10000E+01  0.10000E+01 -0.15368E-12
 -0.16667E+00 -0.66667E+00  0.33333E+00  0.10000E+01  0.10000E+01  0.82645E-13
 -0.13934E-15 -0.66667E+00  0.33333E+00  0.10000E+01  0.10000E+01  0.31257E-12
 -0.10000E+01 -0.50000E+00  0.33333E+00  0.10000E+01  0.10000E+01 -0.26816E-13
 -0.83333E+00 -0.50000E+00  0.33333E+00  0.10000E+01  0.10000E+01  0.27658E-12
 -0.66667E+00 -0.50000E+00  0.33333E+00  0.10000E+01  0.10000E+01  0.23386E-12
 -0.50000E+00 -0.50000E+00  0.33333E+00  0.10000E+01  0.10000E+01  0.10589E-13
 -0.33333E+00 -0.50000E+00  0.33333E+00  0.10000E+01  0.10000E+01 -0.10506E-12
 -0.16667E+00 -0.50000E+00  0.33333E+00  0.10000E+01  0.10000E+01  0.32943E-13
 -0.12303E-15 -0.50000E+00  0.33333E+00  0.10000E+01  0.10000E+01  0.16369E-12
 -0.10000E+01 -0.33333E+00  0.33333E+00  0.10000E+01  0.10000E+01 -0.12020E-13
 -0.83333E+00 -0.33333E+00  0.33333E+00  0.10000E+01  0.10000E+01  0.55546E-13
 -0.66667E+00 -0.33333E+00  0.33333E+00  0.10000E+01  0.10000E+01  0.46425E-13
 -0.50000E+00 -0.33333E+00  0.33333E+00  0.10000E+01  0.10000E+01  0.86358E-14
 -0.33333E+00 -0.33333E+00  0.33333E+00  0.10000E+01  0.10000E+01  0.22543E-14
 -0.16667E+00 -0.33333E+00  0.33333E+00  0.10000E+01  0.10000E+01  0.34750E-13
 -0.13927E-15 -0.33333E+00  0.33333E+00  0.10000E+01  0.10000E+01 -0.36805E-14
 -0.10000E+01 -0.16667E+00  0.33333E+00  0.10000E+01  0.10000E+01  0.89184E-14
 -0.83333E+00 -0.16667E+00  0.33333E+00  0.10000E+01  0.10000E+01 -0.13746E-12
 -0.66667E+00 -0.16667E+00  0.33333E+00  0.10000E+01  0.10000E+01 -0.10023E-12
 -0.50000E+00 -0.16667E+00  0.33333E+00  0.10000E+01  0.10000E+01  0.33202E-13
 -0.33333E+00 -0.16667E+00  0.33333E+00  0.10000E+01  0.10000E+01  0.11487E-12
 -0.16667E+00 -0.16667E+00  0.33333E+00  0.10000E+01  0.10000E+01  0.42721E-13
 -0.17758E-15 -0.16667E+00  0.33333E+00  0.10000E+01  0.10000E+01 -0.13288E-12
 -0.10000E+01 -0.10124E-15  0.33333E+00  0.10000E+01  0.10000E+01  0.18538E-13
 -0.83333E+00 -0.18056E-15  0.33333E+00  0.10000E+01  0.10000E+01 -0.23759E-12
 -0.66667E+00 -0.98299E-16  0.33333E+00  0.10000E+01  0.10000E+01 -0.18457E-12
 -0.50000E+00 -0.15699E-15  0.33333E+00  0.10000E+01  0.10000E+01  0.46070E-13
 -0.33333E+00 -0.15196E-15  0.33333E+00  0.10000E+01  0.10000E+01  0.18822E-12
 -0.16667E+00 -0.22852E-15  0.33333E+00  0.10000E+01  0.10000E+01  0.61918E-13
 -0.10036E-15 -0.13001E-15  0.33333E+00  0.10000E+01  0.10000E+01 -0.20598E-12
 -0.10000E+01 -0.10000E+01  0.50000E+00  0.10000E+01  0.10000E+01  0.98280E-13
 -0.83333E+00 -0.10000E+01  0.50000E+00  0.10000E+01  0.10000E+01  0.59507E-12
 -0.66667E+00 -0.10000E+01  0.50000E+00  0.10000E+01  0.10000E+01  0.57822E-12
 -0.50000E+00 -0.10000E+01  0.50000E+00  0.10000E+01  0.10000E+01  0.23759E-12
 -0.33333E+00 -0.10000E+01  0.50000E+00  0.10000E+01  0.10000E+01 -0.64949E-13
 -0.16667E+00 -0.10000E+01  0.50000E+00  0.10000E+01  0.10000E+01 -0.59873E-13
 -0.11254E-15 -0.10000E+01  0.50000E+00  0.10000E+01  0.10000E+01  0.16580E-12
 -0.10000E+01 -0.83333E+00  0.50000E+00  0.10000E+01  0.10000E+01 -0.72435E-13
 -0.83333E+00 -0.83333E+00  0.50000E+00  0.10000E+01  0.10000E+01  0.69305E-12
 -0.66667E+00 -0.83333E+00  0.50000E+00  0.10000E+01  0.10000E+01  0.51983E-12
 -0.50000E+00 -0.83333E+00  0.50000E+00  0.10000E+01  0.10000E+01 -0.34177E-13
 -0.33333E+00 -0.83333E+00  0.50000E+00  0.10000E+01  0.10000E+01 -0.27911E-12
 -0.16667E+00 -0.83333E+00  0.50000E+00  0.10000E+01  0.10000E+01  0.80883E-13
 -0.12278E-15 -0.83333E+00  0.50000E+00  0.10000E+01  0.10000E+01  0.42180E-12
 -0.10000E+01 -0.66667E+00  0.50000E+00  0.10000E+01  0.10000E+01 -0.52485E-13
 -0.83333E+00 -0.66667E+00  0.50000E+00  0.10000E+01  0.10000E+01  0.50486E-12
 -0.66667E+00 -0.66667E+00  0.50000E+00  0.10000E+01  0.10000E+01  0.37674E-12
 -0.50000E+00 -0.66667E+00  0.50000E+00  0.10000E+01  0.10000E+01 -0.88531E-13
 -0.33333E+00 -0.66667E+00  0.50000E+00  0.10000E+01  0.10000E+01 -0.31429E-12
 -0.16667E+00 -0.66667E+00  0.50000E+00  0.10000E+01  0.10000E+01 -0.41520E-14
 -0.13362E-15 -0.66667E+00  0.50000E+00  0.10000E+01  0.10000E+01  0.34941E-12
 -0.10000E+01 -0.50000E+00  0.50000E+00  0.10000E+01  0.10000E+01 -0.20725E-13
 -0.83333E+00 -0.50000E+00  0.50000E+00  0.10000E+01  0.10000E+01  0.21381E-12
 -0.66667E+00 -0.50000E+00  0.50000E+00  0.10000E+01  0.10000E+01  0.14728E-12
 -0.50000E+00 -0.50000E+00  0.50000E+00  0.10000E+01  0.10000E+01 -0.90818E-13
 -0.33333E+00 -0.50000E+00  0.50000E+00  0.10000E+01  0.10000E+01 -0.20658E-12
 -0.16667E+00 -0.50000E+00  0.50000E+00  0.10000E+01  0.10000E+01 -0.38168E-13
 -0.12248E-15 -0.50000E+00  0.50000E+00  0.10000E+01  0.10000E+01  0.14775E-12
 -0.10000E+01 -0.33333E+00  0.50000E+00  0.10000E+01  0.10000E+01 -0.34116E-14
 -0.83333E+00 -0.33333E+00  0.50000E+00  0.10000E+01  0.10000E+01 -0.83699E-13
 -0.66667E+00 -0.33333E+00  0.50000E+00  0.10000E+01  0.10000E+01 -0.97017E-13
 -0.50000E+00 -0.33333E+00  0.50000E+00  0.10000E+01  0.10000E+01 -0.67266E-13
 -0.33333E+00 -0.33333E+00  0.50000E+00  0.10000E+01  0.10000E+01 -0.20416E-13
 -0.16667E+00 -0.33333E+00  0.50000E+00  0.10000E+01  0.10000E+01  0.29463E-14
 -0.14599E-15 -0.33333E+00  0.50000E+00  0.10000E+01  0.10000E+01 -0.64920E-13
 -0.10000E+01 -0.16667E+00  0.50000E+00  0.10000E+01  0.10000E+01  0.23435E-13
 -0.83333E+00 -0.16667E+00  0.50000E+00  0.10000E+01  0.10000E+01 -0.32518E-12
 -0.66667E+00 -0.16667E+00  0.50000E+00  0.10000E+01  0.10000E+01 -0.27383E-12
 -0.50000E+00 -0.16667E+00  0.50000E+00  0.10000E+01  0.10000E+01 -0.70766E-14
 -0.33333E+00 -0.16667E+00  0.50000E+00  0.10000E+01  0.10000E+01  0.16768E-12
 -0.16667E+00 -0.16667E+00  0.50000E+00  0.10000E+01  0.10000E+01  0.49436E-13
 -0.19701E-15 -0.16667E+00  0.50000E+00  0.10000E+01  0.10000E+01 -0.22724E-12
 -0.10000E+01 -0.74600E-16  0.50000E+00  0.10000E+01  0.10000E+01  0.31677E-13
 -0.83333E+00 -0.18213E-15  0.50000E+00  0.10000E+01  0.10000E+01 -0.42915E-12
 -0.66667E+00 -0.94379E-16  0.50000E+00  0.10000E+01  0.10000E+01 -0.35245E-12
 -0.50000E+00 -0.16230E-15  0.50000E+00  0.10000E+01  0.10000E+01  0.35479E-13
 -0.33333E+00 -0.12539E-15  0.50000E+00  0.10000E+01  0.10000E+01  0.28529E-12
 -0.16667E+00 -0.25540E-15  0.50000E+00  0.10000E+01  0.10000E+01  0.96508E-13
 -0.61730E-16 -0.12318E-15  0.50000E+00  0.10000E+01  0.10000E+01 -0.31061E-12
 -0.10000E+01 -0.10000E+01  0.66667E+00  0.10000E+01  0.10000E+01  0.12834E-12
 -0.83333E+00 -0.10000E+01  0.66667E+00  0.10000E+01  0.10000E+01  0.66447E-12
 -0.66667E+00 -0.10000E+01  0.66667E+00  0.10000E+01  0.10000E+01  0.57859E-12
 -0.50000E+00 -0.10000E+01  0.66667E+00  0.10000E+01  0.10000E+01  0.16882E-12
 -0.33333E+00 -0.10000E+01  0.66667E+00  0.10000E+01  0.10000E+01 -0.14780E-12
 -0.16667E+00 -0.10000E+01  0.66667E+00  0.10000E+01  0.10000E+01 -0.10125E-12
 -0.13560E-15 -0.10000E+01  0.66667E+00  0.10000E+01  0.10000E+01  0.16542E-12
 -0.10000E+01 -0.83333E+00  0.66667E+00  0.10000E+01  0.10000E+01 -0.81797E-13
 -0.83333E+00 -0.83333E+00  0.66667E+00  0.10000E+01  0.10000E+01  0.71256E-12
 -0.66667E+00 -0.83333E+00  0.66667E+00  0.10000E+01  0.10000E+01  0.49394E-12
 -0.50000E+00 -0.83333E+00  0.66667E+00  0.10000E+01  0.10000E+01 -0.12664E-12
 -0.33333E+00 -0.83333E+00  0.66667E+00  0.10000E+01  0.10000E+01 -0.38906E-12
 -0.16667E+00 -0.83333E+00  0.66667E+00  0.10000E+01  0.10000E+01  0.32035E-13
 -0.13519E-15 -0.83333E+00  0.66667E+00  0.10000E+01  0.10000E+01  0.44324E-12
 -0.10000E+01 -0.66667E+00  0.66667E+00  0.10000E+01  0.10000E+01 -0.49450E-13
 -0.83333E+00 -0.66667E+00  0.66667E+00  0.10000E+01  0.10000E+01  0.44465E-12
 -0.66667E+00 -0.66667E+00  0.66667E+00  0.10000E+01  0.10000E+01  0.29244E-12
 -0.50000E+00 -0.66667E+00  0.66667E+00  0.10000E+01  0.10000E+01 -0.18316E-12
 -0.33333E+00 -0.66667E+00  0.66667E+00  0.10000E+01  0.10000E+01 -0.40305E-12
 -0.16667E+00 -0.66667E+00  0.66667E+00  0.10000E+01  0.10000E+01 -0.63213E-13
 -0.13616E-15 -0.66667E+00  0.66667E+00  0.10000E+01  0.10000E+01  0.33399E-12
 -0.10000E+01 -0.50000E+00  0.66667E+00  0.10000E+01  0.10000E+01 -0.66480E-14
 -0.83333E+00 -0.50000E+00  0.66667E+00  0.10000E+01  0.10000E+01  0.70112E-13
 -0.66667E+00 -0.50000E+00  0.66667E+00  0.10000E+01  0.10000E+01 -0.87380E-15
 -0.50000E+00 -0.50000E+00  0.66667E+00  0.10000E+01  0.10000E+01 -0.17320E-12
 -0.33333E+00 -0.50000E+00  0.66667E+00  0.10000E+01  0.10000E+01 -0.23978E-12
 -0.16667E+00 -0.50000E+00  0.66667E+00  0.10000E+01  0.10000E+01 -0.81484E-13
 -0.12384E-15 -0.50000E+00  0.66667E+00  0.10000E+01  0.10000E+01  0.84285E-13
 -0.10000E+01 -0.33333E+00  0.66667E+00  0.10000E+01  0.10000E+01  0.13861E-13
 -0.83333E+00 -0.33333E+00  0.66667E+00  0.10000E+01  0.10000E+01 -0.29459E-12
 -0.66667E+00 -0.33333E+00  0.66667E+00  0.10000E+01  0.10000E+01 -0.29471E-12
 -0.50000E+00 -0.33333E+00  0.66667E+00  0.10000E+01  0.10000E+01 -0.12573E-12
 -0.33333E+00 -0.33333E+00  0.66667E+00  0.10000E+01  0.10000E+01  0.17491E-13
 -0.16667E+00 -0.33333E+00  0.66667E+00  0.10000E+01  0.10000E+01 -0.49500E-14
 -0.14034E-15 -0.33333E+00  0.66667E+00  0.10000E+01  0.10000E+01 -0.16757E-12
 -0.10000E+01 -0.16667E+00  0.66667E+00  0.10000E+01  0.10000E+01  0.44842E-13
 -0.83333E+00 -0.16667E+00  0.66667E+00  0.10000E+01  0.10000E+01 -0.57149E-12
 -0.66667E+00 -0.16667E+00  0.66667E+00  0.10000E+01  0.10000E+01 -0.49282E-12
 -0.50000E+00 -0.16667E+00  0.66667E+00  0.10000E+01  0.10000E+01 -0.34302E-13
 -0.33333E+00 -0.16667E+00  0.66667E+00  0.10000E+01  0.10000E+01  0.26968E-12
 -0.16667E+00 -0.16667E+00  0.66667E+00  0.10000E+01  0.10000E+01  0.76502E-13
 -0.18149E-15 -0.16667E+00  0.66667E+00  0.10000E+01  0.10000E+01 -0.35354E-12
 -0.10000E+01 -0.80855E-16  0.66667E+00  0.10000E+01  0.10000E+01  0.50808E-13
 -0.83333E+00 -0.17681E-15  0.66667E+00  0.10000E+01  0.10000E+01 -0.66670E-12
 -0.66667E+00 -0.10117E-15  0.66667E+00  0.10000E+01  0.10000E+01 -0.55532E-12
 -0.50000E+00 -0.15836E-15  0.66667E+00  0.10000E+01  0.10000E+01  0.35003E-13
 -0.33333E+00 -0.97141E-16  0.66667E+00  0.10000E+01  0.10000E+01  0.41921E-12
 -0.16667E+00 -0.23539E-15  0.66667E+00  0.10000E+01  0.10000E+01  0.14523E-12
 -0.93627E-16 -0.12324E-15  0.66667E+00  0.10000E+01  0.10000E+01 -0.43786E-12
 -0.10000E+01 -0.10000E+01  0.83333E+00  0.10000E+01  0.10000E+01  0.14183E-12
 -0.83333E+00 -0.10000E+01  0.83333E+00  0.10000E+01  0.10000E+01  0.66755E-12
 -0.66667E+00 -0.10000E+01  0.83333E+00  0.10000E+01  0.10000E+01  0.54118E-12
 -0.50000E+00 -0.10000E+01  0.83333E+00  0.10000E+01  0.10000E+01  0.11363E-12
 -0.33333E+00 -0.10000E+01  0.83333E+00  0.10000E+01  0.10000E+01 -0.18687E-12
 -0.16667E+00 -0.10000E+01  0.83333E+00  0.10000E+01  0.10000E+01 -0.10900E-12
 -0.12443E-15 -0.10000E+01  0.83333E+00  0.10000E+01  0.10000E+01  0.16733E-12
 -0.10000E+01 -0.83333E+00  0.83333E+00  0.10000E+01  0.10000E+01 -0.80554E-13
 -0.83333E+00 -0.83333E+00  0.83333E+00  0.10000E+01  0.10000E+01  0.65286E-12
 -0.66667E+00 -0.83333E+00  0.83333E+00  0.10000E+01  0.10000E+01  0.41820E-12
 -0.50000E+00 -0.83333E+00  0.83333E+00  0.10000E+01  0.10000E+01 -0.18390E-12
 -0.33333E+00 -0.83333E+00  0.83333E+00  0.10000E+01  0.10000E+01 -0.41947E-12
 -0.16667E+00 -0.83333E+00  0.83333E+00  0.10000E+01  0.10000E+01  0.13555E-13
 -0.13147E-15 -0.83333E+00  0.83333E+00  0.10000E+01  0.10000E+01  0.42017E-12
 -0.10000E+01 -0.66667E+00  0.83333E+00  0.10000E+01  0.10000E+01 -0.40278E-13
 -0.83333E+00 -0.66667E+00  0.83333E+00  0.10000E+01  0.10000E+01  0.31367E-12
 -0.66667E+00 -0.66667E+00  0.83333E+00  0.10000E+01  0.10000E+01  0.15967E-12
 -0.50000E+00 -0.66667E+00  0.83333E+00  0.10000E+01  0.10000E+01 -0.24373E-12
 -0.33333E+00 -0.66667E+00  0.83333E+00  0.10000E+01  0.10000E+01 -0.40892E-12
 -0.16667E+00 -0.66667E+00  0.83333E+00  0.10000E+01  0.10000E+01 -0.85659E-13
 -0.13324E-15 -0.66667E+00  0.83333E+00  0.10000E+01  0.10000E+01  0.27266E-12
 -0.10000E+01 -0.50000E+00  0.83333E+00  0.10000E+01  0.10000E+01  0.10593E-13
 -0.83333E+00 -0.50000E+00  0.83333E+00  0.10000E+01  0.10000E+01 -0.13239E-12
 -0.66667E+00 -0.50000E+00  0.83333E+00  0.10000E+01  0.10000E+01 -0.19046E-12
 -0.50000E+00 -0.50000E+00  0.83333E+00  0.10000E+01  0.10000E+01 -0.22534E-12
 -0.33333E+00 -0.50000E+00  0.83333E+00  0.10000E+01  0.10000E+01 -0.19780E-12
 -0.16667E+00 -0.50000E+00  0.83333E+00  0.10000E+01  0.10000E+01 -0.88087E-13
 -0.12851E-15 -0.50000E+00  0.83333E+00  0.10000E+01  0.10000E+01 -0.16436E-13
 -0.10000E+01 -0.33333E+00  0.83333E+00  0.10000E+01  0.10000E+01  0.35369E-13
 -0.83333E+00 -0.33333E+00  0.83333E+00  0.10000E+01  0.10000E+01 -0.55227E-12
 -0.66667E+00 -0.33333E+00  0.83333E+00  0.10000E+01  0.10000E+01 -0.52508E-12
 -0.50000E+00 -0.33333E+00  0.83333E+00  0.10000E+01  0.10000E+01 -0.15821E-12
 -0.33333E+00 -0.33333E+00  0.83333E+00  0.10000E+01  0.10000E+01  0.11823E-12
 -0.16667E+00 -0.33333E+00  0.83333E+00  0.10000E+01  0.10000E+01  0.18819E-13
 -0.13619E-15 -0.33333E+00  0.83333E+00  0.10000E+01  0.10000E+01 -0.29762E-12
 -0.10000E+01 -0.16667E+00  0.83333E+00  0.10000E+01  0.10000E+01  0.69015E-13
 -0.83333E+00 -0.16667E+00  0.83333E+00  0.10000E+01  0.10000E+01 -0.85159E-12
 -0.66667E+00 -0.16667E+00  0.83333E+00  0.10000E+01  0.10000E+01 -0.73588E-12
 -0.50000E+00 -0.16667E+00  0.83333E+00  0.10000E+01  0.10000E+01 -0.42987E-13
 -0.33333E+00 -0.16667E+00  0.83333E+00  0.10000E+01  0.10000E+01  0.41844E-12
 -0.16667E+00 -0.16667E+00  0.83333E+00  0.10000E+01  0.10000E+01  0.13021E-12
 -0.15959E-15 -0.16667E+00  0.83333E+00  0.10000E+01  0.10000E+01 -0.49540E-12
 -0.10000E+01 -0.10447E-15  0.83333E+00  0.10000E+01  0.10000E+01  0.74418E-13
 -0.83333E+00 -0.15225E-15  0.83333E+00  0.10000E+01  0.10000E+01 -0.92866E-12
 -0.66667E+00 -0.12528E-15  0.83333E+00  0.10000E+01  0.10000E+01 -0.77516E-12
 -0.50000E+00 -0.15968E-15  0.83333E+00  0.10000E+01  0.10000E+01  0.47369E-13
 -0.33333E+00 -0.15373E-15  0.83333E+00  0.10000E+01  0.10000E+01  0.58509E-12
 -0.16667E+00 -0.21483E-15  0.83333E+00  0.10000E+01  0.10000E+01  0.21247E-12
 -0.15060E-15 -0.17433E-15  0.83333E+00  0.10000E+01  0.10000E+01 -0.57308E-12
 -0.10000E+01 -0.10000E+01  0.10000E+01  0.10000E+01  0.10000E+01  0.14063E-12
 -0.83333E+00 -0.10000E+01  0.10000E+01  0.10000E+01  0.10000E+01  0.63159E-12
 -0.66667E+00 -0.10000E+01  0.10000E+01  0.10000E+01  0.10000E+01  0.48635E-12
 -0.50000E+00 -0.10000E+01  0.10000E+01  0.10000E+01  0.10000E+01  0.81438E-13
 -0.33333E+00 -0.10000E+01  0.10000E+01  0.10000E+01  0.10000E+01 -0.18122E-12
 -0.16667E+00 -0.10000E+01  0.10000E+01  0.10000E+01  0.10000E+01 -0.88107E-13
 -0.14601E-15 -0.10000E+01  0.10000E+01  0.10000E+01  0.10000E+01  0.17197E-12
 -0.10000E+01 -0.83333E+00  0.10000E+01  0.10000E+01  0.10000E+01 -0.79878E-13
 -0.83333E+00 -0.83333E+00  0.10000E+01  0.10000E+01  0.10000E+01  0.55516E-12
 -0.66667E+00 -0.83333E+00  0.10000E+01  0.10000E+01  0.10000E+01  0.31930E-12
 -0.50000E+00 -0.83333E+00  0.10000E+01  0.10000E+01  0.10000E+01 -0.21312E-12
 -0.33333E+00 -0.83333E+00  0.10000E+01  0.10000E+01  0.10000E+01 -0.38589E-12
 -0.16667E+00 -0.83333E+00  0.10000E+01  0.10000E+01  0.10000E+01  0.38504E-13
 -0.14314E-15 -0.83333E+00  0.10000E+01  0.10000E+01  0.10000E+01  0.37842E-12
 -0.10000E+01 -0.66667E+00  0.10000E+01  0.10000E+01  0.10000E+01 -0.30748E-13
 -0.83333E+00 -0.66667E+00  0.10000E+01  0.10000E+01  0.10000E+01  0.15416E-12
 -0.66667E+00 -0.66667E+00  0.10000E+01  0.10000E+01  0.10000E+01  0.11447E-13
 -0.50000E+00 -0.66667E+00  0.10000E+01  0.10000E+01  0.10000E+01 -0.27480E-12
 -0.33333E+00 -0.66667E+00  0.10000E+01  0.10000E+01  0.10000E+01 -0.35211E-12
 -0.16667E+00 -0.66667E+00  0.10000E+01  0.10000E+01  0.10000E+01 -0.61887E-13
 -0.13322E-15 -0.66667E+00  0.10000E+01  0.10000E+01  0.10000E+01  0.19818E-12
 -0.10000E+01 -0.50000E+00  0.10000E+01  0.10000E+01  0.10000E+01  0.28444E-13
 -0.83333E+00 -0.50000E+00  0.10000E+01  0.10000E+01  0.10000E+01 -0.35268E-12
 -0.66667E+00 -0.50000E+00  0.10000E+01  0.10000E+01  0.10000E+01 -0.38611E-12
 -0.50000E+00 -0.50000E+00  0.10000E+01  0.10000E+01  0.10000E+01 -0.24786E-12
 -0.33333E+00 -0.50000E+00  0.10000E+01  0.10000E+01  0.10000E+01 -0.10068E-12
 -0.16667E+00 -0.50000E+00  0.10000E+01  0.10000E+01  0.10000E+01 -0.54371E-13
 -0.13461E-15 -0.50000E+00  0.10000E+01  0.10000E+01  0.10000E+01 -0.12620E-12
 -0.10000E+01 -0.33333E+00  0.10000E+01  0.10000E+01  0.10000E+01  0.58647E-13
 -0.83333E+00 -0.33333E+00  0.10000E+01  0.10000E+01  0.10000E+01 -0.81800E-12
 -0.66667E+00 -0.33333E+00  0.10000E+01  0.10000E+01  0.10000E+01 -0.75344E-12
 -0.50000E+00 -0.33333E+00  0.10000E+01  0.10000E+01  0.10000E+01 -0.16253E-12
 -0.33333E+00 -0.33333E+00  0.10000E+01  0.10000E+01  0.10000E+01  0.26373E-12
 -0.16667E+00 -0.33333E+00  0.10000E+01  0.10000E+01  0.10000E+01  0.72576E-13
 -0.12452E-15 -0.33333E+00  0.10000E+01  0.10000E+01  0.10000E+01 -0.43618E-12
 -0.10000E+01 -0.16667E+00  0.10000E+01  0.10000E+01  0.10000E+01  0.94432E-13
 -0.83333E+00 -0.16667E+00  0.10000E+01  0.10000E+01  0.10000E+01 -0.11314E-11
 -0.66667E+00 -0.16667E+00  0.10000E+01  0.10000E+01  0.10000E+01 -0.97011E-12
 -0.50000E+00 -0.16667E+00  0.10000E+01  0.10000E+01  0.10000E+01 -0.27615E-13
 -0.33333E+00 -0.16667E+00  0.10000E+01  0.10000E+01  0.10000E+01  0.59860E-12
 -0.16667E+00 -0.16667E+00  0.10000E+01  0.10000E+01  0.10000E+01  0.20328E-12
 -0.11820E-15 -0.16667E+00  0.10000E+01  0.10000E+01  0.10000E+01 -0.64270E-12
 -0.10000E+01 -0.11871E-15  0.10000E+01  0.10000E+01  0.10000E+01  0.97097E-13
 -0.83333E+00 -0.16534E-15  0.10000E+01  0.10000E+01  0.10000E+01 -0.11849E-11
 -0.66667E+00 -0.11355E-15  0.10000E+01  0.10000E+01  0.10000E+01 -0.98350E-12
 -0.50000E+00 -0.15542E-15  0.10000E+01  0.10000E+01  0.10000E+01  0.76934E-13
 -0.33333E+00 -0.65065E-16  0.10000E+01  0.10000E+01  0.10000E+01  0.76952E-12
 -0.16667E+00 -0.16950E-15  0.10000E+01  0.10000E+01  0.10000E+01  0.29106E-12
 -0.24807E-15 -0.12074E-15  0.10000E+01  0.10000E+01  0.10000E+01 -0.71172E-12
 ZONE I=           7 ,J=           7 ,K=           7 , F=POINT
 -0.76714E-16 -0.10000E+01 -0.20123E-15  0.10000E+01  0.10000E+01  0.89757E-13
  0.16667E+00 -0.10000E+01 -0.34694E-16  0.10000E+01  0.10000E+01  0.18339E-12
  0.33333E+00 -0.10000E+01  0.34694E-16  0.10000E+01  0.10000E+01  0.18532E-12
  0.50000E+00 -0.10000E+01  0.15959E-15  0.10000E+01  0.10000E+01  0.16345E-12
  0.66667E+00 -0.10000E+01 -0.69389E-17  0.10000E+01  0.10000E+01  0.12280E-12
  0.83333E+00 -0.10000E+01 -0.20817E-16  0.10000E+01  0.10000E+01  0.69691E-13
  0.10000E+01 -0.10000E+01 -0.34694E-16  0.10000E+01  0.10000E+01  0.75799E-13
 -0.12723E-15 -0.83333E+00  0.55511E-16  0.10000E+01  0.10000E+01  0.16818E-12
  0.16667E+00 -0.83333E+00  0.55511E-16  0.10000E+01  0.10000E+01 -0.85642E-13
  0.33333E+00 -0.83333E+00 -0.27756E-16  0.10000E+01  0.10000E+01 -0.11049E-12
  0.50000E+00 -0.83333E+00  0.34694E-16  0.10000E+01  0.10000E+01  0.26142E-12
  0.66667E+00 -0.83333E+00 -0.34694E-16  0.10000E+01  0.10000E+01  0.63096E-12
  0.83333E+00 -0.83333E+00  0.55511E-16  0.10000E+01  0.10000E+01  0.52949E-12
  0.10000E+01 -0.83333E+00 -0.69389E-17  0.10000E+01  0.10000E+01 -0.83735E-13
 -0.29262E-16 -0.66667E+00 -0.41633E-16  0.10000E+01  0.10000E+01  0.13349E-12
  0.16667E+00 -0.66667E+00 -0.69389E-17  0.10000E+01  0.10000E+01 -0.11919E-12
  0.33333E+00 -0.66667E+00 -0.13878E-15  0.10000E+01  0.10000E+01 -0.21889E-12
  0.50000E+00 -0.66667E+00 -0.62450E-16  0.10000E+01  0.10000E+01  0.18922E-12
  0.66667E+00 -0.66667E+00 -0.20817E-16  0.10000E+01  0.10000E+01  0.70638E-12
  0.83333E+00 -0.66667E+00  0.48572E-16  0.10000E+01  0.10000E+01  0.74335E-12
  0.10000E+01 -0.66667E+00  0.13878E-16  0.10000E+01  0.10000E+01  0.83600E-13
  0.20947E-16 -0.50000E+00 -0.34694E-16  0.10000E+01  0.10000E+01  0.59062E-13
  0.16667E+00 -0.50000E+00 -0.41633E-16  0.10000E+01  0.10000E+01 -0.12325E-12
  0.33333E+00 -0.50000E+00 -0.20817E-16  0.10000E+01  0.10000E+01 -0.21523E-12
  0.50000E+00 -0.50000E+00  0.00000E+00  0.10000E+01  0.10000E+01  0.13555E-12
  0.66667E+00 -0.50000E+00  0.41633E-16  0.10000E+01  0.10000E+01  0.62456E-12
  0.83333E+00 -0.50000E+00  0.97145E-16  0.10000E+01  0.10000E+01  0.74095E-12
  0.10000E+01 -0.50000E+00 -0.48572E-16  0.10000E+01  0.10000E+01  0.21810E-12
  0.16848E-16 -0.33333E+00 -0.27756E-16  0.10000E+01  0.10000E+01 -0.15147E-13
  0.16667E+00 -0.33333E+00 -0.48572E-16  0.10000E+01  0.10000E+01 -0.13629E-12
  0.33333E+00 -0.33333E+00 -0.11102E-15  0.10000E+01  0.10000E+01 -0.15990E-12