  TITLE = "Generic solution"                                                                                                         
  VARIABLES = "x","y","z","Q1","Q2","Q3"                                                                                             
 ZONE I=           7 ,J=           7 ,K=           7 , F=POINT
  0.10000E+01 -0.43272E-16 -0.10061E-15  0.10004E+01  0.82851E+00  0.19392E-03
  0.10833E+01 -0.31309E-18 -0.17347E-16  0.10604E+01  0.76459E+00 -0.41271E-04
  0.11667E+01 -0.75679E-16  0.17347E-16  0.10987E+01  0.71007E+00  0.89446E-05
  0.12500E+01 -0.38470E-17  0.79797E-16  0.11256E+01  0.66274E+00  0.18057E-04
  0.13333E+01 -0.34192E-16 -0.34694E-17  0.11460E+01  0.62129E+00 -0.13188E-04
  0.14167E+01 -0.44737E-16 -0.10408E-16  0.11618E+01  0.58482E+00  0.98026E-06
  0.15000E+01  0.51646E-16 -0.17347E-16  0.11745E+01  0.55225E+00 -0.10874E-04
  0.10000E+01  0.48113E-01  0.27756E-16  0.10014E+01  0.82660E+00  0.39780E-01
  0.10833E+01  0.52122E-01  0.27756E-16  0.10612E+01  0.76277E+00  0.36684E-01
  0.11667E+01  0.56131E-01 -0.13878E-16  0.10992E+01  0.70839E+00  0.34075E-01
  0.12500E+01  0.60141E-01  0.17347E-16  0.11260E+01  0.66115E+00  0.31809E-01
  0.13333E+01  0.64150E-01 -0.17347E-16  0.11464E+01  0.61979E+00  0.29815E-01
  0.14167E+01  0.68159E-01  0.27756E-16  0.11621E+01  0.58341E+00  0.28058E-01
  0.15000E+01  0.72169E-01 -0.34694E-17  0.11748E+01  0.55087E+00  0.26509E-01
  0.10000E+01  0.96225E-01 -0.20817E-16  0.10046E+01  0.82091E+00  0.78954E-01
  0.10833E+01  0.10424E+00 -0.34694E-17  0.10632E+01  0.75750E+00  0.72885E-01
  0.11667E+01  0.11226E+00 -0.69389E-16  0.11007E+01  0.70351E+00  0.67681E-01
  0.12500E+01  0.12028E+00 -0.31225E-16  0.11272E+01  0.65659E+00  0.63173E-01
  0.13333E+01  0.12830E+00 -0.10408E-16  0.11474E+01  0.61550E+00  0.59225E-01
  0.14167E+01  0.13632E+00  0.24286E-16  0.11629E+01  0.57938E+00  0.55737E-01
  0.15000E+01  0.14434E+00  0.69389E-17  0.11755E+01  0.54706E+00  0.52650E-01
  0.10000E+01  0.14434E+00 -0.17347E-16  0.10098E+01  0.81158E+00  0.11708E+00
  0.10833E+01  0.15637E+00 -0.20817E-16  0.10665E+01  0.74891E+00  0.10810E+00
  0.11667E+01  0.16839E+00 -0.10408E-16  0.11032E+01  0.69552E+00  0.10037E+00
  0.12500E+01  0.18042E+00  0.00000E+00  0.11292E+01  0.64914E+00  0.93684E-01
  0.13333E+01  0.19245E+00  0.20817E-16  0.11489E+01  0.60851E+00  0.87831E-01
  0.14167E+01  0.20448E+00  0.48572E-16  0.11642E+01  0.57280E+00  0.82661E-01
  0.15000E+01  0.21651E+00 -0.24286E-16  0.11766E+01  0.54085E+00  0.78080E-01
  0.10000E+01  0.19245E+00 -0.13878E-16  0.10166E+01  0.79887E+00  0.15367E+00
  0.10833E+01  0.20849E+00 -0.24286E-16  0.10710E+01  0.73721E+00  0.14188E+00
  0.11667E+01  0.22453E+00 -0.55511E-16  0.11065E+01  0.68464E+00  0.13174E+00
  0.12500E+01  0.24056E+00  0.69389E-17  0.11318E+01  0.63898E+00  0.12296E+00
  0.13333E+01  0.25660E+00 -0.34694E-17  0.11511E+01  0.59900E+00  0.11528E+00
  0.14167E+01  0.27264E+00  0.24286E-16  0.11660E+01  0.56383E+00  0.10849E+00
  0.15000E+01  0.28868E+00 -0.55511E-16  0.11782E+01  0.53240E+00  0.10248E+00
  0.10000E+01  0.24056E+00  0.10408E-16  0.10247E+01  0.78312E+00  0.18831E+00
  0.10833E+01  0.26061E+00  0.10408E-16  0.10764E+01  0.72269E+00  0.17386E+00
  0.11667E+01  0.28066E+00  0.69389E-17  0.11105E+01  0.67115E+00  0.16143E+00
  0.12500E+01  0.30070E+00  0.38164E-16  0.11350E+01  0.62639E+00  0.15067E+00
  0.13333E+01  0.32075E+00  0.38164E-16  0.11537E+01  0.58720E+00  0.14126E+00
  0.14167E+01  0.34080E+00  0.38164E-16  0.11683E+01  0.55272E+00  0.13295E+00
  0.15000E+01  0.36084E+00 -0.69389E-17  0.11800E+01  0.52191E+00  0.12557E+00
  0.10000E+01  0.28868E+00  0.48572E-16  0.10338E+01  0.76468E+00  0.22067E+00
  0.10833E+01  0.31273E+00  0.55511E-16  0.10825E+01  0.70571E+00  0.20373E+00
  0.11667E+01  0.33679E+00 -0.34694E-16  0.11151E+01  0.65537E+00  0.18917E+00
  0.12500E+01  0.36084E+00  0.69389E-17  0.11387E+01  0.61166E+00  0.17656E+00
  0.13333E+01  0.38490E+00 -0.58981E-16  0.11568E+01  0.57340E+00  0.16553E+00
  0.14167E+01  0.40896E+00  0.27756E-16  0.11708E+01  0.53972E+00  0.15579E+00
  0.15000E+01  0.43301E+00 -0.83267E-16  0.11822E+01  0.50965E+00  0.14715E+00
  0.10000E+01  0.29245E-16  0.83333E-01  0.10003E+01  0.82853E+00  0.27582E-03
  0.10833E+01 -0.31041E-16  0.83333E-01  0.10605E+01  0.76453E+00 -0.70985E-04
  0.11667E+01  0.13957E-19  0.83333E-01  0.10987E+01  0.71004E+00  0.25936E-04
  0.12500E+01  0.70252E-17  0.83333E-01  0.11256E+01  0.66269E+00  0.26219E-04
  0.13333E+01  0.38660E-17  0.83333E-01  0.11461E+01  0.62122E+00 -0.31066E-04
  0.14167E+01  0.31899E-17  0.83333E-01  0.11618E+01  0.58477E+00  0.99546E-05
  0.15000E+01 -0.84230E-17  0.83333E-01  0.11746E+01  0.55216E+00 -0.40685E-04
  0.10000E+01  0.48113E-01  0.83333E-01  0.10013E+01  0.82658E+00  0.39799E-01
  0.10833E+01  0.52122E-01  0.83333E-01  0.10612E+01  0.76271E+00  0.36674E-01
  0.11667E+01  0.56131E-01  0.83333E-01  0.10992E+01  0.70835E+00  0.34078E-01
  0.12500E+01  0.60141E-01  0.83333E-01  0.11260E+01  0.66109E+00  0.31812E-01
  0.13333E+01  0.64150E-01  0.83333E-01  0.11464E+01  0.61971E+00  0.29809E-01
  0.14167E+01  0.68159E-01  0.83333E-01  0.11621E+01  0.58335E+00  0.28055E-01
  0.15000E+01  0.72169E-01  0.83333E-01  0.11749E+01  0.55075E+00  0.26509E-01
  0.10000E+01  0.96225E-01  0.83333E-01  0.10045E+01  0.82088E+00  0.78941E-01
  0.10833E+01  0.10424E+00  0.83333E-01  0.10632E+01  0.75746E+00  0.72887E-01
  0.11667E+01  0.11226E+00  0.83333E-01  0.11007E+01  0.70346E+00  0.67680E-01
  0.12500E+01  0.12028E+00  0.83333E-01  0.11272E+01  0.65653E+00  0.63170E-01
  0.13333E+01  0.12830E+00  0.83333E-01  0.11474E+01  0.61543E+00  0.59223E-01
  0.14167E+01  0.13632E+00  0.83333E-01  0.11629E+01  0.57932E+00  0.55733E-01
  0.15000E+01  0.14434E+00  0.83333E-01  0.11756E+01  0.54694E+00  0.52649E-01
  0.10000E+01  0.14434E+00  0.83333E-01  0.10097E+01  0.81155E+00  0.11706E+00
  0.10833E+01  0.15637E+00  0.83333E-01  0.10666E+01  0.74887E+00  0.10810E+00
  0.11667E+01  0.16839E+00  0.83333E-01  0.11031E+01  0.69549E+00  0.10037E+00
  0.12500E+01  0.18042E+00  0.83333E-01  0.11292E+01  0.64908E+00  0.93679E-01
  0.13333E+01  0.19245E+00  0.83333E-01  0.11490E+01  0.60846E+00  0.87831E-01
  0.14167E+01  0.20448E+00  0.83333E-01  0.11642E+01  0.57275E+00  0.82657E-01
  0.15000E+01  0.21651E+00  0.83333E-01  0.11767E+01  0.54075E+00  0.78079E-01
  0.10000E+01  0.19245E+00  0.83333E-01  0.10165E+01  0.79885E+00  0.15364E+00
  0.10833E+01  0.20849E+00  0.83333E-01  0.10710E+01  0.73718E+00  0.14189E+00
  0.11667E+01  0.22453E+00  0.83333E-01  0.11064E+01  0.68461E+00  0.13174E+00
  0.12500E+01  0.24056E+00  0.83333E-01  0.11318E+01  0.63894E+00  0.12296E+00
  0.13333E+01  0.25660E+00  0.83333E-01  0.11511E+01  0.59895E+00  0.11528E+00
  0.14167E+01  0.27264E+00  0.83333E-01  0.11660E+01  0.56380E+00  0.10849E+00
  0.15000E+01  0.28868E+00  0.83333E-01  0.11782E+01  0.53231E+00  0.10248E+00
  0.10000E+01  0.24056E+00  0.83333E-01  0.10247E+01  0.78309E+00  0.18828E+00
  0.10833E+01  0.26061E+00  0.83333E-01  0.10764E+01  0.72267E+00  0.17387E+00
  0.11667E+01  0.28066E+00  0.83333E-01  0.11105E+01  0.67113E+00  0.16143E+00
  0.12500E+01  0.30070E+00  0.83333E-01  0.11350E+01  0.62636E+00  0.15067E+00
  0.13333E+01  0.32075E+00  0.83333E-01  0.11537E+01  0.58716E+00  0.14126E+00
  0.14167E+01  0.34080E+00  0.83333E-01  0.11682E+01  0.55269E+00  0.13294E+00
  0.15000E+01  0.36084E+00  0.83333E-01  0.11801E+01  0.52184E+00  0.12558E+00
  0.10000E+01  0.28868E+00  0.83333E-01  0.10338E+01  0.76466E+00  0.22064E+00
  0.10833E+01  0.31273E+00  0.83333E-01  0.10826E+01  0.70569E+00  0.20374E+00
  0.11667E+01  0.33679E+00  0.83333E-01  0.11151E+01  0.65535E+00  0.18917E+00
  0.12500E+01  0.36084E+00  0.83333E-01  0.11387E+01  0.61164E+00  0.17656E+00
  0.13333E+01  0.38490E+00  0.83333E-01  0.11568E+01  0.57337E+00  0.16553E+00
  0.14167E+01  0.40896E+00  0.83333E-01  0.11708E+01  0.53970E+00  0.15578E+00
  0.15000E+01  0.43301E+00  0.83333E-01  0.11823E+01  0.50960E+00  0.14715E+00
  0.10000E+01  0.67454E-17  0.16667E+00  0.10003E+01  0.82853E+00  0.28205E-03
  0.10833E+01 -0.32720E-16  0.16667E+00  0.10605E+01  0.76453E+00 -0.73963E-04
  0.11667E+01 -0.12284E-16  0.16667E+00  0.10987E+01  0.71004E+00  0.29409E-04
  0.12500E+01  0.55797E-17  0.16667E+00  0.11256E+01  0.66269E+00  0.27358E-04
  0.13333E+01 -0.21934E-16  0.16667E+00  0.11461E+01  0.62122E+00 -0.33870E-04
  0.14167E+01 -0.79242E-17  0.16667E+00  0.11618E+01  0.58477E+00  0.11370E-04
  0.15000E+01 -0.54178E-16  0.16667E+00  0.11746E+01  0.55215E+00 -0.43523E-04
  0.10000E+01  0.48113E-01  0.16667E+00  0.10013E+01  0.82658E+00  0.39803E-01
  0.10833E+01  0.52122E-01  0.16667E+00  0.10612E+01  0.76271E+00  0.36672E-01
  0.11667E+01  0.56131E-01  0.16667E+00  0.10992E+01  0.70835E+00  0.34080E-01
  0.12500E+01  0.60141E-01  0.16667E+00  0.11260E+01  0.66109E+00  0.31813E-01
  0.13333E+01  0.64150E-01  0.16667E+00  0.11464E+01  0.61971E+00  0.29807E-01
  0.14167E+01  0.68159E-01  0.16667E+00  0.11621E+01  0.58335E+00  0.28055E-01
  0.15000E+01  0.72169E-01  0.16667E+00  0.11749E+01  0.55074E+00  0.26510E-01
  0.10000E+01  0.96225E-01  0.16667E+00  0.10045E+01  0.82088E+00  0.78941E-01
  0.10833E+01  0.10424E+00  0.16667E+00  0.10632E+01  0.75745E+00  0.72887E-01
  0.11667E+01  0.11226E+00  0.16667E+00  0.11007E+01  0.70347E+00  0.67680E-01
  0.12500E+01  0.12028E+00  0.16667E+00  0.11272E+01  0.65653E+00  0.63171E-01
  0.13333E+01  0.12830E+00  0.16667E+00  0.11474E+01  0.61543E+00  0.59222E-01
  0.14167E+01  0.13632E+00  0.16667E+00  0.11629E+01  0.57932E+00  0.55733E-01
  0.15000E+01  0.14434E+00  0.16667E+00  0.11756E+01  0.54692E+00  0.52650E-01
  0.10000E+01  0.14434E+00  0.16667E+00  0.10097E+01  0.81155E+00  0.11706E+00
  0.10833E+01  0.15637E+00  0.16667E+00  0.10666E+01  0.74887E+00  0.10810E+00
  0.11667E+01  0.16839E+00  0.16667E+00  0.11031E+01  0.69549E+00  0.10037E+00
  0.12500E+01  0.18042E+00  0.16667E+00  0.11292E+01  0.64908E+00  0.93679E-01
  0.13333E+01  0.19245E+00  0.16667E+00  0.11490E+01  0.60845E+00  0.87831E-01
  0.14167E+01  0.20448E+00  0.16667E+00  0.11642E+01  0.57275E+00  0.82657E-01
  0.15000E+01  0.21651E+00  0.16667E+00  0.11767E+01  0.54073E+00  0.78079E-01
  0.10000E+01  0.19245E+00  0.16667E+00  0.10165E+01  0.79884E+00  0.15364E+00
  0.10833E+01  0.20849E+00  0.16667E+00  0.10710E+01  0.73718E+00  0.14189E+00
  0.11667E+01  0.22453E+00  0.16667E+00  0.11064E+01  0.68462E+00  0.13174E+00
  0.12500E+01  0.24056E+00  0.16667E+00  0.11318E+01  0.63894E+00  0.12295E+00
  0.13333E+01  0.25660E+00  0.16667E+00  0.11511E+01  0.59895E+00  0.11528E+00
  0.14167E+01  0.27264E+00  0.16667E+00  0.11660E+01  0.56380E+00  0.10849E+00
  0.15000E+01  0.28868E+00  0.16667E+00  0.11782E+01  0.53230E+00  0.10248E+00
  0.10000E+01  0.24056E+00  0.16667E+00  0.10247E+01  0.78309E+00  0.18828E+00
  0.10833E+01  0.26061E+00  0.16667E+00  0.10764E+01  0.72267E+00  0.17387E+00
  0.11667E+01  0.28066E+00  0.16667E+00  0.11105E+01  0.67113E+00  0.16143E+00
  0.12500E+01  0.30070E+00  0.16667E+00  0.11350E+01  0.62635E+00  0.15067E+00
  0.13333E+01  0.32075E+00  0.16667E+00  0.11537E+01  0.58716E+00  0.14126E+00
  0.14167E+01  0.34080E+00  0.16667E+00  0.11682E+01  0.55269E+00  0.13294E+00
  0.15000E+01  0.36084E+00  0.16667E+00  0.11801E+01  0.52183E+00  0.12558E+00
  0.10000E+01  0.28868E+00  0.16667E+00  0.10338E+01  0.76466E+00  0.22064E+00
  0.10833E+01  0.31273E+00  0.16667E+00  0.10826E+01  0.70569E+00  0.20374E+00
  0.11667E+01  0.33679E+00  0.16667E+00  0.11151E+01  0.65535E+00  0.18917E+00
  0.12500E+01  0.36084E+00  0.16667E+00  0.11387E+01  0.61163E+00  0.17656E+00
  0.13333E+01  0.38490E+00  0.16667E+00  0.11568E+01  0.57337E+00  0.16553E+00
  0.14167E+01  0.40896E+00  0.16667E+00  0.11708E+01  0.53970E+00  0.15578E+00
  0.15000E+01  0.43301E+00  0.16667E+00  0.11823E+01  0.50959E+00  0.14715E+00
  0.10000E+01 -0.34677E-16  0.25000E+00  0.10003E+01  0.82853E+00  0.27931E-03
  0.10833E+01 -0.27018E-16  0.25000E+00  0.10605E+01  0.76453E+00 -0.74434E-04
  0.11667E+01 -0.10593E-16  0.25000E+00  0.10987E+01  0.71004E+00  0.29832E-04
  0.12500E+01  0.88169E-17  0.25000E+00  0.11256E+01  0.66269E+00  0.27544E-04
  0.13333E+01 -0.18255E-16  0.25000E+00  0.11461E+01  0.62122E+00 -0.34218E-04
  0.14167E+01 -0.36487E-16  0.25000E+00  0.11618E+01  0.58477E+00  0.11075E-04
  0.15000E+01  0.46987E-16  0.25000E+00  0.11746E+01  0.55215E+00 -0.42798E-04
  0.10000E+01  0.48113E-01  0.25000E+00  0.10013E+01  0.82658E+00  0.39804E-01
  0.10833E+01  0.52122E-01  0.25000E+00  0.10612E+01  0.76271E+00  0.36671E-01
  0.11667E+01  0.56131E-01  0.25000E+00  0.10992E+01  0.70835E+00  0.34080E-01
  0.12500E+01  0.60141E-01  0.25000E+00  0.11260E+01  0.66109E+00  0.31814E-01
  0.13333E+01  0.64150E-01  0.25000E+00  0.11464E+01  0.61971E+00  0.29807E-01
  0.14167E+01  0.68159E-01  0.25000E+00  0.11621E+01  0.58335E+00  0.28055E-01
  0.15000E+01  0.72169E-01  0.25000E+00  0.11749E+01  0.55075E+00  0.26510E-01
  0.10000E+01  0.96225E-01  0.25000E+00  0.10045E+01  0.82088E+00  0.78942E-01
  0.10833E+01  0.10424E+00  0.25000E+00  0.10632E+01  0.75746E+00  0.72887E-01
  0.11667E+01  0.11226E+00  0.25000E+00  0.11007E+01  0.70347E+00  0.67681E-01
  0.12500E+01  0.12028E+00  0.25000E+00  0.11272E+01  0.65653E+00  0.63171E-01
  0.13333E+01  0.12830E+00  0.25000E+00  0.11474E+01  0.61543E+00  0.59223E-01
  0.14167E+01  0.13632E+00  0.25000E+00  0.11629E+01  0.57933E+00  0.55733E-01
  0.15000E+01  0.14434E+00  0.25000E+00  0.11756E+01  0.54693E+00  0.52650E-01
  0.10000E+01  0.14434E+00  0.25000E+00  0.10097E+01  0.81155E+00  0.11706E+00
  0.10833E+01  0.15637E+00  0.25000E+00  0.10666E+01  0.74887E+00  0.10810E+00
  0.11667E+01  0.16839E+00  0.25000E+00  0.11031E+01  0.69549E+00  0.10037E+00
  0.12500E+01  0.18042E+00  0.25000E+00  0.11292E+01  0.64908E+00  0.93680E-01
  0.13333E+01  0.19245E+00  0.25000E+00  0.11490E+01  0.60845E+00  0.87832E-01
  0.14167E+01  0.20448E+00  0.25000E+00  0.11642E+01  0.57276E+00  0.82657E-01
  0.15000E+01  0.21651E+00  0.25000E+00  0.11767E+01  0.54074E+00  0.78080E-01
  0.10000E+01  0.19245E+00  0.25000E+00  0.10165E+01  0.79884E+00  0.15364E+00
  0.10833E+01  0.20849E+00  0.25000E+00  0.10710E+01  0.73718E+00  0.14189E+00
  0.11667E+01  0.22453E+00  0.25000E+00  0.11064E+01  0.68462E+00  0.13174E+00
  0.12500E+01  0.24056E+00  0.25000E+00  0.11318E+01  0.63894E+00  0.12296E+00
  0.13333E+01  0.25660E+00  0.25000E+00  0.11511E+01  0.59895E+00  0.11528E+00
  0.14167E+01  0.27264E+00  0.25000E+00  0.11660E+01  0.56380E+00  0.10849E+00
  0.15000E+01  0.28868E+00  0.25000E+00  0.11782E+01  0.53230E+00  0.10248E+00
  0.10000E+01  0.24056E+00  0.25000E+00  0.10247E+01  0.78308E+00  0.18828E+00
  0.10833E+01  0.26061E+00  0.25000E+00  0.10764E+01  0.72267E+00  0.17387E+00
  0.11667E+01  0.28066E+00  0.25000E+00  0.11105E+01  0.67113E+00  0.16143E+00
  0.12500E+01  0.30070E+00  0.25000E+00  0.11350E+01  0.62636E+00  0.15067E+00
  0.13333E+01  0.32075E+00  0.25000E+00  0.11537E+01  0.58716E+00  0.14126E+00
  0.14167E+01  0.34080E+00  0.25000E+00  0.11682E+01  0.55269E+00  0.13294E+00
  0.15000E+01  0.36084E+00  0.25000E+00  0.11801E+01  0.52183E+00  0.12558E+00
  0.10000E+01  0.28868E+00  0.25000E+00  0.10338E+01  0.76466E+00  0.22064E+00
  0.10833E+01  0.31273E+00  0.25000E+00  0.10826E+01  0.70569E+00  0.20374E+00
  0.11667E+01  0.33679E+00  0.25000E+00  0.11151E+01  0.65535E+00  0.18917E+00
  0.12500E+01  0.36084E+00  0.25000E+00  0.11387E+01  0.61164E+00  0.17656E+00
  0.13333E+01  0.38490E+00  0.25000E+00  0.11568E+01  0.57337E+00  0.16553E+00
  0.14167E+01  0.40896E+00  0.25000E+00  0.11708E+01  0.53970E+00  0.15579E+00
  0.15000E+01  0.43301E+00  0.25000E+00  0.11823E+01  0.50959E+00  0.14715E+00
  0.10000E+01 -0.25568E-16  0.33333E+00  0.10003E+01  0.82853E+00  0.28166E-03
  0.10833E+01 -0.23838E-16  0.33333E+00  0.10605E+01  0.76453E+00 -0.75900E-04
  0.11667E+01 -0.85220E-17  0.33333E+00  0.10987E+01  0.71004E+00  0.30234E-04
  0.12500E+01 -0.74861E-17  0.33333E+00  0.11256E+01  0.66269E+00  0.27885E-04
  0.13333E+01 -0.47866E-17  0.33333E+00  0.11461E+01  0.62122E+00 -0.34815E-04
  0.14167E+01 -0.20192E-16  0.33333E+00  0.11618E+01  0.58477E+00  0.11155E-04
  0.15000E+01  0.10311E-15  0.33333E+00  0.11746E+01  0.55215E+00 -0.43713E-04
  0.10000E+01  0.48113E-01  0.33333E+00  0.10013E+01  0.82658E+00  0.39804E-01
  0.10833E+01  0.52122E-01  0.33333E+00  0.10612E+01  0.76271E+00  0.36671E-01
  0.11667E+01  0.56131E-01  0.33333E+00  0.10992E+01  0.70835E+00  0.34080E-01
  0.12500E+01  0.60141E-01  0.33333E+00  0.11260E+01  0.66109E+00  0.31814E-01
  0.13333E+01  0.64150E-01  0.33333E+00  0.11464E+01  0.61971E+00  0.29807E-01
  0.14167E+01  0.68159E-01  0.33333E+00  0.11621E+01  0.58335E+00  0.28054E-01
  0.15000E+01  0.72169E-01  0.33333E+00  0.11749E+01  0.55074E+00  0.26510E-01
  0.10000E+01  0.96225E-01  0.33333E+00  0.10045E+01  0.82087E+00  0.78942E-01
  0.10833E+01  0.10424E+00  0.33333E+00  0.10632E+01  0.75746E+00  0.72887E-01
  0.11667E+01  0.11226E+00  0.33333E+00  0.11007E+01  0.70347E+00  0.67681E-01
  0.12500E+01  0.12028E+00  0.33333E+00  0.11272E+01  0.65653E+00  0.63171E-01
  0.13333E+01  0.12830E+00  0.33333E+00  0.11474E+01  0.61543E+00  0.59223E-01
  0.14167E+01  0.13632E+00  0.33333E+00  0.11629E+01  0.57933E+00  0.55733E-01
  0.15000E+01  0.14434E+00  0.33333E+00  0.11756E+01  0.54693E+00  0.52650E-01
  0.10000E+01  0.14434E+00  0.33333E+00  0.10097E+01  0.81155E+00  0.11706E+00
  0.10833E+01  0.15637E+00  0.33333E+00  0.10666E+01  0.74887E+00  0.10810E+00
  0.11667E+01  0.16839E+00  0.33333E+00  0.11031E+01  0.69549E+00  0.10037E+00
  0.12500E+01  0.18042E+00  0.33333E+00  0.11292E+01  0.64908E+00  0.93680E-01
  0.13333E+01  0.19245E+00  0.33333E+00  0.11490E+01  0.60845E+00  0.87832E-01
  0.14167E+01  0.20448E+00  0.33333E+00  0.11642E+01  0.57276E+00  0.82657E-01
  0.15000E+01  0.21651E+00  0.33333E+00  0.11767E+01  0.54074E+00  0.78080E-01
  0.10000E+01  0.19245E+00  0.33333E+00  0.10165E+01  0.79884E+00  0.15364E+00
  0.10833E+01  0.20849E+00  0.33333E+00  0.10710E+01  0.73718E+00  0.14189E+00
  0.11667E+01  0.22453E+00  0.33333E+00  0.11064E+01  0.68462E+00  0.13174E+00
  0.12500E+01  0.24056E+00  0.33333E+00  0.11318E+01  0.63894E+00  0.12296E+00
  0.13333E+01  0.25660E+00  0.33333E+00  0.11511E+01  0.59895E+00  0.11528E+00
  0.14167E+01  0.27264E+00  0.33333E+00  0.11660E+01  0.56380E+00  0.10849E+00
  0.15000E+01  0.28868E+00  0.33333E+00  0.11782E+01  0.53230E+00  0.10248E+00
  0.10000E+01  0.24056E+00  0.33333E+00  0.10247E+01  0.78308E+00  0.18828E+00
  0.10833E+01  0.26061E+00  0.33333E+00  0.10764E+01  0.72267E+00  0.17387E+00
  0.11667E+01  0.28066E+00  0.33333E+00  0.11105E+01  0.67113E+00  0.16143E+00
  0.12500E+01  0.30070E+00  0.33333E+00  0.11350E+01  0.62636E+00  0.15067E+00
  0.13333E+01  0.32075E+00  0.33333E+00  0.11537E+01  0.58716E+00  0.14126E+00
  0.14167E+01  0.34080E+00  0.33333E+00  0.11682E+01  0.55269E+00  0.13294E+00
  0.15000E+01  0.36084E+00  0.33333E+00  0.11801E+01  0.52183E+00  0.12558E+00
  0.10000E+01  0.28868E+00  0.33333E+00  0.10338E+01  0.76466E+00  0.22064E+00
  0.10833E+01  0.31273E+00  0.33333E+00  0.10826E+01  0.70569E+00  0.20374E+00
  0.11667E+01  0.33679E+00  0.33333E+00  0.11151E+01  0.65535E+00  0.18917E+00
  0.12500E+01  0.36084E+00  0.33333E+00  0.11387E+01  0.61164E+00  0.17656E+00
  0.13333E+01  0.38490E+00  0.33333E+00  0.11568E+01  0.57337E+00  0.16553E+00
  0.14167E+01  0.40896E+00  0.33333E+00  0.11708E+01  0.53970E+00  0.15579E+00
  0.15000E+01  0.43301E+00  0.33333E+00  0.11823E+01  0.50959E+00  0.14715E+00
  0.10000E+01  0.15849E-16  0.41667E+00  0.10003E+01  0.82853E+00  0.28162E-03
  0.10833E+01 -0.24304E-16  0.41667E+00  0.10605E+01  0.76453E+00 -0.75237E-04
  0.11667E+01 -0.28061E-16  0.41667E+00  0.10987E+01  0.71004E+00  0.30250E-04
  0.12500E+01 -0.34822E-16  0.41667E+00  0.11256E+01  0.66269E+00  0.27762E-04
  0.13333E+01 -0.14122E-16  0.41667E+00  0.11461E+01  0.62122E+00 -0.34624E-04
  0.14167E+01  0.35339E-16  0.41667E+00  0.11618E+01  0.58477E+00  0.11401E-04
  0.15000E+01 -0.56747E-17  0.41667E+00  0.11746E+01  0.55215E+00 -0.43783E-04
  0.10000E+01  0.48113E-01  0.41667E+00  0.10013E+01  0.82658E+00  0.39804E-01
  0.10833E+01  0.52122E-01  0.41667E+00  0.10612E+01  0.76271E+00  0.36671E-01
  0.11667E+01  0.56131E-01  0.41667E+00  0.10992E+01  0.70835E+00  0.34080E-01
  0.12500E+01  0.60141E-01  0.41667E+00  0.11260E+01  0.66109E+00  0.31814E-01
  0.13333E+01  0.64150E-01  0.41667E+00  0.11464E+01  0.61971E+00  0.29807E-01
  0.14167E+01  0.68159E-01  0.41667E+00  0.11621E+01  0.58335E+00  0.28055E-01
  0.15000E+01  0.72169E-01  0.41667E+00  0.11749E+01  0.55074E+00  0.26510E-01
  0.10000E+01  0.96225E-01  0.41667E+00  0.10045E+01  0.82087E+00  0.78942E-01
  0.10833E+01  0.10424E+00  0.41667E+00  0.10632E+01  0.75746E+00  0.72887E-01
  0.11667E+01  0.11226E+00  0.41667E+00  0.11007E+01  0.70347E+00  0.67681E-01
  0.12500E+01  0.12028E+00  0.41667E+00  0.11272E+01  0.65653E+00  0.63171E-01
  0.13333E+01  0.12830E+00  0.41667E+00  0.11474E+01  0.61543E+00  0.59223E-01
  0.14167E+01  0.13632E+00  0.41667E+00  0.11629E+01  0.57933E+00  0.55733E-01
  0.15000E+01  0.14434E+00  0.41667E+00  0.11756E+01  0.54692E+00  0.52650E-01
  0.10000E+01  0.14434E+00  0.41667E+00  0.10097E+01  0.81155E+00  0.11706E+00
  0.10833E+01  0.15637E+00  0.41667E+00  0.10666E+01  0.74887E+00  0.10810E+00
  0.11667E+01  0.16839E+00  0.41667E+00  0.11031E+01  0.69549E+00  0.10037E+00
  0.12500E+01  0.18042E+00  0.41667E+00  0.11292E+01  0.64908E+00  0.93680E-01
  0.13333E+01  0.19245E+00  0.41667E+00  0.11490E+01  0.60845E+00  0.87832E-01
  0.14167E+01  0.20448E+00  0.41667E+00  0.11642E+01  0.57276E+00  0.82657E-01
  0.15000E+01  0.21651E+00  0.41667E+00  0.11767E+01  0.54074E+00  0.78080E-01
  0.10000E+01  0.19245E+00  0.41667E+00  0.10165E+01  0.79884E+00  0.15364E+00
  0.10833E+01  0.20849E+00  0.41667E+00  0.10710E+01  0.73718E+00  0.14189E+00
  0.11667E+01  0.22453E+00  0.41667E+00  0.11064E+01  0.68462E+00  0.13174E+00
  0.12500E+01  0.24056E+00  0.41667E+00  0.11318E+01  0.63894E+00  0.12296E+00
  0.13333E+01  0.25660E+00  0.41667E+00  0.11511E+01  0.59895E+00  0.11528E+00
  0.14167E+01  0.27264E+00  0.41667E+00  0.11660E+01  0.56380E+00  0.10849E+00
  0.15000E+01  0.28868E+00  0.41667E+00  0.11782E+01  0.53230E+00  0.10248E+00
  0.10000E+01  0.24056E+00  0.41667E+00  0.10247E+01  0.78308E+00  0.18828E+00
  0.10833E+01  0.26061E+00  0.41667E+00  0.10764E+01  0.72267E+00  0.17387E+00
  0.11667E+01  0.28066E+00  0.41667E+00  0.11105E+01  0.67113E+00  0.16143E+00
  0.12500E+01  0.30070E+00  0.41667E+00  0.11350E+01  0.62636E+00  0.15067E+00
  0.13333E+01  0.32075E+00  0.41667E+00  0.11537E+01  0.58716E+00  0.14126E+00
  0.14167E+01  0.34080E+00  0.41667E+00  0.11682E+01  0.55269E+00  0.13294E+00
  0.15000E+01  0.36084E+00  0.41667E+00  0.11801E+01  0.52183E+00  0.12558E+00
  0.10000E+01  0.28868E+00  0.41667E+00  0.10338E+01  0.76466E+00  0.22064E+00
  0.10833E+01  0.31273E+00  0.41667E+00  0.10826E+01  0.70569E+00  0.20374E+00
  0.11667E+01  0.33679E+00  0.41667E+00  0.11151E+01  0.65535E+00  0.18917E+00
  0.12500E+01  0.36084E+00  0.41667E+00  0.11387E+01  0.61164E+00  0.17656E+00
  0.13333E+01  0.38490E+00  0.41667E+00  0.11568E+01  0.57337E+00  0.16553E+00
  0.14167E+01  0.40896E+00  0.41667E+00  0.11708E+01  0.53970E+00  0.15579E+00
  0.15000E+01  0.43301E+00  0.41667E+00  0.11823E+01  0.50959E+00  0.14715E+00
  0.10000E+01 -0.97372E-16  0.50000E+00  0.10003E+01  0.82853E+00  0.28125E-03
  0.10833E+01 -0.23745E-16  0.50000E+00  0.10605E+01  0.76453E+00 -0.76811E-04
  0.11667E+01  0.76349E-17  0.50000E+00  0.10987E+01  0.71004E+00  0.30171E-04
  0.12500E+01  0.42003E-16  0.50000E+00  0.11256E+01  0.66269E+00  0.28043E-04
  0.13333E+01  0.83516E-17  0.50000E+00  0.11461E+01  0.62122E+00 -0.35047E-04
  0.14167E+01 -0.32076E-16  0.50000E+00  0.11618E+01  0.58477E+00  0.10794E-04
  0.15000E+01  0.69597E-16  0.50000E+00  0.11746E+01  0.55215E+00 -0.43353E-04
  0.10000E+01  0.48113E-01  0.50000E+00  0.10013E+01  0.82658E+00  0.39804E-01
  0.10833E+01  0.52122E-01  0.50000E+00  0.10612E+01  0.76271E+00  0.36670E-01
  0.11667E+01  0.56131E-01  0.50000E+00  0.10992E+01  0.70835E+00  0.34080E-01
  0.12500E+01  0.60141E-01  0.50000E+00  0.11260E+01  0.66109E+00  0.31814E-01
  0.13333E+01  0.64150E-01  0.50000E+00  0.11464E+01  0.61971E+00  0.29808E-01
  0.14167E+01  0.68159E-01  0.50000E+00  0.11621E+01  0.58335E+00  0.28054E-01
  0.15000E+01  0.72169E-01  0.50000E+00  0.11749E+01  0.55075E+00  0.26510E-01
  0.10000E+01  0.96225E-01  0.50000E+00  0.10045E+01  0.82087E+00  0.78942E-01
  0.10833E+01  0.10424E+00  0.50000E+00  0.10632E+01  0.75746E+00  0.72887E-01
  0.11667E+01  0.11226E+00  0.50000E+00  0.11007E+01  0.70347E+00  0.67681E-01
  0.12500E+01  0.12028E+00  0.50000E+00  0.11272E+01  0.65653E+00  0.63171E-01
  0.13333E+01  0.12830E+00  0.50000E+00  0.11474E+01  0.61543E+00  0.59223E-01
  0.14167E+01  0.13632E+00  0.50000E+00  0.11629E+01  0.57933E+00  0.55733E-01
  0.15000E+01  0.14434E+00  0.50000E+00  0.11756E+01  0.54693E+00  0.52651E-01
  0.10000E+01  0.14434E+00  0.50000E+00  0.10097E+01  0.81155E+00  0.11706E+00
  0.10833E+01  0.15637E+00  0.50000E+00  0.10666E+01  0.74887E+00  0.10811E+00
  0.11667E+01  0.16839E+00  0.50000E+00  0.11031E+01  0.69549E+00  0.10037E+00
  0.12500E+01  0.18042E+00  0.50000E+00  0.11292E+01  0.64908E+00  0.93680E-01
  0.13333E+01  0.19245E+00  0.50000E+00  0.11490E+01  0.60845E+00  0.87832E-01
  0.14167E+01  0.20448E+00  0.50000E+00  0.11642E+01  0.57276E+00  0.82658E-01
  0.15000E+01  0.21651E+00  0.50000E+00  0.11767E+01  0.54074E+00  0.78080E-01
  0.10000E+01  0.19245E+00  0.50000E+00  0.10165E+01  0.79884E+00  0.15364E+00
  0.10833E+01  0.20849E+00  0.50000E+00  0.10710E+01  0.73718E+00  0.14189E+00
  0.11667E+01  0.22453E+00  0.50000E+00  0.11064E+01  0.68462E+00  0.13174E+00
  0.12500E+01  0.24056E+00  0.50000E+00  0.11318E+01  0.63894E+00  0.12296E+00
  0.13333E+01  0.25660E+00  0.50000E+00  0.11511E+01  0.59895E+00  0.11528E+00
  0.14167E+01  0.27264E+00  0.50000E+00  0.11660E+01  0.56380E+00  0.10849E+00
  0.15000E+01  0.28868E+00  0.50000E+00  0.11782E+01  0.53231E+00  0.10248E+00
  0.10000E+01  0.24056E+00  0.50000E+00  0.10247E+01  0.78308E+00  0.18828E+00
  0.10833E+01  0.26061E+00  0.50000E+00  0.10764E+01  0.72267E+00  0.17387E+00
  0.11667E+01  0.28066E+00  0.50000E+00  0.11105E+01  0.67113E+00  0.16143E+00
  0.12500E+01  0.30070E+00  0.50000E+00  0.11350E+01  0.62636E+00  0.15067E+00
  0.13333E+01  0.32075E+00  0.50000E+00  0.11537E+01  0.58716E+00  0.14126E+00
  0.14167E+01  0.34080E+00  0.50000E+00  0.11682E+01  0.55269E+00  0.13294E+00
  0.15000E+01  0.36084E+00  0.50000E+00  0.11801E+01  0.52184E+00  0.12558E+00
  0.10000E+01  0.28868E+00  0.50000E+00  0.10338E+01  0.76466E+00  0.22064E+00
  0.10833E+01  0.31273E+00  0.50000E+00  0.10826E+01  0.70569E+00  0.20374E+00
  0.11667E+01  0.33679E+00  0.50000E+00  0.11151E+01  0.65535E+00  0.18917E+00
  0.12500E+01  0.36084E+00  0.50000E+00  0.11387E+01  0.61164E+00  0.17656E+00
  0.13333E+01  0.38490E+00  0.50000E+00  0.11568E+01  0.57337E+00  0.16553E+00
  0.14167E+01  0.40896E+00  0.50000E+00  0.11708E+01  0.53970E+00  0.15579E+00
  0.15000E+01  0.43301E+00  0.50000E+00  0.11823E+01  0.50960E+00  0.14715E+00
 ZONE I=           7 ,J=           7 ,K=           7 , F=POINT
  0.15000E+01  0.68789E-17 -0.10061E-15  0.11744E+01  0.55235E+00 -0.57894E-05
  0.15833E+01 -0.58544E-16 -0.17347E-16  0.11847E+01  0.52328E+00  0.14300E-05
  0.16667E+01 -0.21787E-17  0.17347E-16  0.11932E+01  0.49715E+00  0.32055E-06
  0.17500E+01 -0.20921E-16  0.79797E-16  0.12004E+01  0.47348E+00 -0.10789E-05
  0.18333E+01 -0.36699E-18 -0.34694E-17  0.12065E+01  0.45197E+00 -0.17705E-05
  0.19167E+01 -0.40470E-16 -0.10408E-16  0.12117E+01  0.43233E+00 -0.73830E-05
  0.20000E+01 -0.94899E-16 -0.17347E-16  0.12162E+01  0.41420E+00 -0.29757E-04
  0.15000E+01  0.72169E-01  0.27756E-16  0.11747E+01  0.55099E+00  0.26504E-01
  0.15833E+01  0.76178E-01  0.27756E-16  0.11849E+01  0.52199E+00  0.25108E-01
  0.16667E+01  0.80188E-01 -0.13878E-16  0.11934E+01  0.49591E+00  0.23853E-01
  0.17500E+01  0.84197E-01  0.17347E-16  0.12005E+01  0.47230E+00  0.22718E-01
  0.18333E+01  0.88206E-01 -0.17347E-16  0.12066E+01  0.45084E+00  0.21686E-01
  0.19167E+01  0.92216E-01  0.27756E-16  0.12118E+01  0.43124E+00  0.20748E-01
  0.20000E+01  0.96225E-01 -0.34694E-17  0.12163E+01  0.41321E+00  0.19911E-01
  0.15000E+01  0.14434E+00 -0.20817E-16  0.11754E+01  0.54717E+00  0.52644E-01
  0.15833E+01  0.15236E+00 -0.34694E-17  0.11855E+01  0.51838E+00  0.49874E-01
  0.16667E+01  0.16038E+00 -0.69389E-16  0.11939E+01  0.49247E+00  0.47381E-01
  0.17500E+01  0.16839E+00 -0.31225E-16  0.12010E+01  0.46902E+00  0.45126E-01
  0.18333E+01  0.17641E+00 -0.10408E-16  0.12070E+01  0.44771E+00  0.43077E-01
  0.19167E+01  0.18443E+00  0.24286E-16  0.12122E+01  0.42824E+00  0.41211E-01
  0.20000E+01  0.19245E+00  0.69389E-17  0.12167E+01  0.41035E+00  0.39504E-01
  0.15000E+01  0.21651E+00 -0.17347E-16  0.11765E+01  0.54096E+00  0.78072E-01
  0.15833E+01  0.22853E+00 -0.20817E-16  0.11865E+01  0.51249E+00  0.73964E-01
  0.16667E+01  0.24056E+00 -0.10408E-16  0.11948E+01  0.48687E+00  0.70267E-01
  0.17500E+01  0.25259E+00  0.00000E+00  0.12018E+01  0.46369E+00  0.66923E-01
  0.18333E+01  0.26462E+00  0.20817E-16  0.12077E+01  0.44262E+00  0.63884E-01
  0.19167E+01  0.27665E+00  0.48572E-16  0.12128E+01  0.42338E+00  0.61110E-01
  0.20000E+01  0.28868E+00 -0.24286E-16  0.12172E+01  0.40570E+00  0.58568E-01
  0.15000E+01  0.28868E+00 -0.13878E-16  0.11780E+01  0.53249E+00  0.10247E+00
  0.15833E+01  0.30471E+00 -0.24286E-16  0.11879E+01  0.50447E+00  0.97078E-01
  0.16667E+01  0.32075E+00 -0.55511E-16  0.11960E+01  0.47925E+00  0.92225E-01