  TITLE = "Generic solution"                                                                                                         
  VARIABLES = "x","y","z","Q1","Q2","Q3"                                                                                             
 ZONE I=           7 ,J=           7 ,K=           7 , F=POINT
  0.10000E+01 -0.43272E-16 -0.10061E-15  0.10002E+01  0.82845E+00  0.25723E-06
  0.10833E+01 -0.31309E-18 -0.17347E-16  0.10605E+01  0.76438E+00  0.25355E-06
  0.11667E+01 -0.75679E-16  0.17347E-16  0.10986E+01  0.70992E+00  0.16708E-06
  0.12500E+01 -0.38470E-17  0.79797E-16  0.11256E+01  0.66252E+00  0.17226E-06
  0.13333E+01 -0.34192E-16 -0.34694E-17  0.11460E+01  0.62102E+00  0.18467E-06
  0.14167E+01 -0.44737E-16 -0.10408E-16  0.11617E+01  0.58461E+00  0.12245E-06
  0.15000E+01  0.51646E-16 -0.17347E-16  0.11746E+01  0.55186E+00  0.16781E-06
  0.10000E+01  0.48113E-01  0.27756E-16  0.10013E+01  0.82653E+00  0.39745E-01
  0.10833E+01  0.52122E-01  0.27756E-16  0.10611E+01  0.76262E+00  0.36711E-01
  0.11667E+01  0.56131E-01 -0.13878E-16  0.10991E+01  0.70828E+00  0.34080E-01
  0.12500E+01  0.60141E-01  0.17347E-16  0.11260E+01  0.66099E+00  0.31807E-01
  0.13333E+01  0.64150E-01 -0.17347E-16  0.11464E+01  0.61959E+00  0.29823E-01
  0.14167E+01  0.68159E-01  0.27756E-16  0.11620E+01  0.58326E+00  0.28064E-01
  0.15000E+01  0.72169E-01 -0.34694E-17  0.11748E+01  0.55060E+00  0.26511E-01
  0.10000E+01  0.96225E-01 -0.20817E-16  0.10045E+01  0.82083E+00  0.78945E-01
  0.10833E+01  0.10424E+00 -0.34694E-17  0.10632E+01  0.75738E+00  0.72916E-01
  0.11667E+01  0.11226E+00 -0.69389E-16  0.11006E+01  0.70341E+00  0.67691E-01
  0.12500E+01  0.12028E+00 -0.31225E-16  0.11272E+01  0.65645E+00  0.63177E-01
  0.13333E+01  0.12830E+00 -0.10408E-16  0.11473E+01  0.61534E+00  0.59235E-01
  0.14167E+01  0.13632E+00  0.24286E-16  0.11628E+01  0.57925E+00  0.55743E-01
  0.15000E+01  0.14434E+00  0.69389E-17  0.11755E+01  0.54683E+00  0.52657E-01
  0.10000E+01  0.14434E+00 -0.17347E-16  0.10097E+01  0.81151E+00  0.11708E+00
  0.10833E+01  0.15637E+00 -0.20817E-16  0.10665E+01  0.74881E+00  0.10813E+00
  0.11667E+01  0.16839E+00 -0.10408E-16  0.11031E+01  0.69544E+00  0.10039E+00
  0.12500E+01  0.18042E+00  0.00000E+00  0.11291E+01  0.64902E+00  0.93691E-01
  0.13333E+01  0.19245E+00  0.20817E-16  0.11489E+01  0.60838E+00  0.87845E-01
  0.14167E+01  0.20448E+00  0.48572E-16  0.11642E+01  0.57270E+00  0.82667E-01
  0.15000E+01  0.21651E+00 -0.24286E-16  0.11766E+01  0.54065E+00  0.78090E-01
  0.10000E+01  0.19245E+00 -0.13878E-16  0.10165E+01  0.79881E+00  0.15367E+00
  0.10833E+01  0.20849E+00 -0.24286E-16  0.10710E+01  0.73712E+00  0.14192E+00
  0.11667E+01  0.22453E+00 -0.55511E-16  0.11064E+01  0.68457E+00  0.13176E+00
  0.12500E+01  0.24056E+00  0.69389E-17  0.11317E+01  0.63889E+00  0.12297E+00
  0.13333E+01  0.25660E+00 -0.34694E-17  0.11511E+01  0.59889E+00  0.11530E+00
  0.14167E+01  0.27264E+00  0.24286E-16  0.11660E+01  0.56376E+00  0.10850E+00
  0.15000E+01  0.28868E+00 -0.55511E-16  0.11782E+01  0.53224E+00  0.10249E+00
  0.10000E+01  0.24056E+00  0.10408E-16  0.10246E+01  0.78306E+00  0.18831E+00
  0.10833E+01  0.26061E+00  0.10408E-16  0.10764E+01  0.72262E+00  0.17390E+00
  0.11667E+01  0.28066E+00  0.69389E-17  0.11105E+01  0.67109E+00  0.16145E+00
  0.12500E+01  0.30070E+00  0.38164E-16  0.11350E+01  0.62632E+00  0.15069E+00
  0.13333E+01  0.32075E+00  0.38164E-16  0.11537E+01  0.58712E+00  0.14128E+00
  0.14167E+01  0.34080E+00  0.38164E-16  0.11682E+01  0.55266E+00  0.13296E+00
  0.15000E+01  0.36084E+00 -0.69389E-17  0.11801E+01  0.52179E+00  0.12559E+00
  0.10000E+01  0.28868E+00  0.48572E-16  0.10338E+01  0.76463E+00  0.22067E+00
  0.10833E+01  0.31273E+00  0.55511E-16  0.10825E+01  0.70565E+00  0.20377E+00
  0.11667E+01  0.33679E+00 -0.34694E-16  0.11151E+01  0.65532E+00  0.18919E+00
  0.12500E+01  0.36084E+00  0.69389E-17  0.11387E+01  0.61160E+00  0.17657E+00
  0.13333E+01  0.38490E+00 -0.58981E-16  0.11568E+01  0.57333E+00  0.16555E+00
  0.14167E+01  0.40896E+00  0.27756E-16  0.11708E+01  0.53968E+00  0.15580E+00
  0.15000E+01  0.43301E+00 -0.83267E-16  0.11823E+01  0.50955E+00  0.14716E+00
  0.10000E+01  0.29245E-16  0.83333E-01  0.10002E+01  0.82845E+00  0.25723E-06
  0.10833E+01 -0.31041E-16  0.83333E-01  0.10605E+01  0.76438E+00  0.25355E-06
  0.11667E+01  0.13957E-19  0.83333E-01  0.10986E+01  0.70992E+00  0.16708E-06
  0.12500E+01  0.70252E-17  0.83333E-01  0.11256E+01  0.66252E+00  0.17226E-06
  0.13333E+01  0.38660E-17  0.83333E-01  0.11460E+01  0.62102E+00  0.18467E-06
  0.14167E+01  0.31899E-17  0.83333E-01  0.11617E+01  0.58461E+00  0.12245E-06
  0.15000E+01 -0.84230E-17  0.83333E-01  0.11746E+01  0.55186E+00  0.16781E-06
  0.10000E+01  0.48113E-01  0.83333E-01  0.10013E+01  0.82653E+00  0.39745E-01
  0.10833E+01  0.52122E-01  0.83333E-01  0.10611E+01  0.76262E+00  0.36711E-01
  0.11667E+01  0.56131E-01  0.83333E-01  0.10991E+01  0.70828E+00  0.34080E-01
  0.12500E+01  0.60141E-01  0.83333E-01  0.11260E+01  0.66099E+00  0.31807E-01
  0.13333E+01  0.64150E-01  0.83333E-01  0.11464E+01  0.61959E+00  0.29823E-01
  0.14167E+01  0.68159E-01  0.83333E-01  0.11620E+01  0.58326E+00  0.28064E-01
  0.15000E+01  0.72169E-01  0.83333E-01  0.11748E+01  0.55060E+00  0.26511E-01
  0.10000E+01  0.96225E-01  0.83333E-01  0.10045E+01  0.82083E+00  0.78945E-01
  0.10833E+01  0.10424E+00  0.83333E-01  0.10632E+01  0.75738E+00  0.72916E-01
  0.11667E+01  0.11226E+00  0.83333E-01  0.11006E+01  0.70341E+00  0.67691E-01
  0.12500E+01  0.12028E+00  0.83333E-01  0.11272E+01  0.65645E+00  0.63177E-01
  0.13333E+01  0.12830E+00  0.83333E-01  0.11473E+01  0.61534E+00  0.59235E-01
  0.14167E+01  0.13632E+00  0.83333E-01  0.11628E+01  0.57925E+00  0.55743E-01
  0.15000E+01  0.14434E+00  0.83333E-01  0.11755E+01  0.54683E+00  0.52657E-01
  0.10000E+01  0.14434E+00  0.83333E-01  0.10097E+01  0.81151E+00  0.11708E+00
  0.10833E+01  0.15637E+00  0.83333E-01  0.10665E+01  0.74881E+00  0.10813E+00
  0.11667E+01  0.16839E+00  0.83333E-01  0.11031E+01  0.69544E+00  0.10039E+00
  0.12500E+01  0.18042E+00  0.83333E-01  0.11291E+01  0.64902E+00  0.93691E-01
  0.13333E+01  0.19245E+00  0.83333E-01  0.11489E+01  0.60838E+00  0.87845E-01
  0.14167E+01  0.20448E+00  0.83333E-01  0.11642E+01  0.57270E+00  0.82667E-01
  0.15000E+01  0.21651E+00  0.83333E-01  0.11766E+01  0.54065E+00  0.78090E-01
  0.10000E+01  0.19245E+00  0.83333E-01  0.10165E+01  0.79881E+00  0.15367E+00
  0.10833E+01  0.20849E+00  0.83333E-01  0.10710E+01  0.73712E+00  0.14192E+00
  0.11667E+01  0.22453E+00  0.83333E-01  0.11064E+01  0.68457E+00  0.13176E+00
  0.12500E+01  0.24056E+00  0.83333E-01  0.11317E+01  0.63889E+00  0.12297E+00
  0.13333E+01  0.25660E+00  0.83333E-01  0.11511E+01  0.59889E+00  0.11530E+00
  0.14167E+01  0.27264E+00  0.83333E-01  0.11660E+01  0.56376E+00  0.10850E+00
  0.15000E+01  0.28868E+00  0.83333E-01  0.11782E+01  0.53224E+00  0.10249E+00
  0.10000E+01  0.24056E+00  0.83333E-01  0.10246E+01  0.78306E+00  0.18831E+00
  0.10833E+01  0.26061E+00  0.83333E-01  0.10764E+01  0.72262E+00  0.17390E+00
  0.11667E+01  0.28066E+00  0.83333E-01  0.11105E+01  0.67109E+00  0.16145E+00
  0.12500E+01  0.30070E+00  0.83333E-01  0.11350E+01  0.62632E+00  0.15069E+00
  0.13333E+01  0.32075E+00  0.83333E-01  0.11537E+01  0.58712E+00  0.14128E+00
  0.14167E+01  0.34080E+00  0.83333E-01  0.11682E+01  0.55266E+00  0.13296E+00
  0.15000E+01  0.36084E+00  0.83333E-01  0.11801E+01  0.52179E+00  0.12559E+00
  0.10000E+01  0.28868E+00  0.83333E-01  0.10338E+01  0.76463E+00  0.22067E+00
  0.10833E+01  0.31273E+00  0.83333E-01  0.10825E+01  0.70565E+00  0.20377E+00
  0.11667E+01  0.33679E+00  0.83333E-01  0.11151E+01  0.65532E+00  0.18919E+00
  0.12500E+01  0.36084E+00  0.83333E-01  0.11387E+01  0.61160E+00  0.17657E+00
  0.13333E+01  0.38490E+00  0.83333E-01  0.11568E+01  0.57333E+00  0.16555E+00
  0.14167E+01  0.40896E+00  0.83333E-01  0.11708E+01  0.53968E+00  0.15580E+00
  0.15000E+01  0.43301E+00  0.83333E-01  0.11823E+01  0.50955E+00  0.14716E+00
  0.10000E+01  0.67454E-17  0.16667E+00  0.10002E+01  0.82845E+00  0.25723E-06
  0.10833E+01 -0.32720E-16  0.16667E+00  0.10605E+01  0.76438E+00  0.25355E-06
  0.11667E+01 -0.12284E-16  0.16667E+00  0.10986E+01  0.70992E+00  0.16708E-06
  0.12500E+01  0.55797E-17  0.16667E+00  0.11256E+01  0.66252E+00  0.17226E-06
  0.13333E+01 -0.21934E-16  0.16667E+00  0.11460E+01  0.62102E+00  0.18467E-06
  0.14167E+01 -0.79242E-17  0.16667E+00  0.11617E+01  0.58461E+00  0.12245E-06
  0.15000E+01 -0.54178E-16  0.16667E+00  0.11746E+01  0.55186E+00  0.16781E-06
  0.10000E+01  0.48113E-01  0.16667E+00  0.10013E+01  0.82653E+00  0.39745E-01
  0.10833E+01  0.52122E-01  0.16667E+00  0.10611E+01  0.76262E+00  0.36711E-01
  0.11667E+01  0.56131E-01  0.16667E+00  0.10991E+01  0.70828E+00  0.34080E-01
  0.12500E+01  0.60141E-01  0.16667E+00  0.11260E+01  0.66099E+00  0.31807E-01
  0.13333E+01  0.64150E-01  0.16667E+00  0.11464E+01  0.61959E+00  0.29823E-01
  0.14167E+01  0.68159E-01  0.16667E+00  0.11620E+01  0.58326E+00  0.28064E-01
  0.15000E+01  0.72169E-01  0.16667E+00  0.11748E+01  0.55060E+00  0.26511E-01
  0.10000E+01  0.96225E-01  0.16667E+00  0.10045E+01  0.82083E+00  0.78945E-01
  0.10833E+01  0.10424E+00  0.16667E+00  0.10632E+01  0.75738E+00  0.72916E-01
  0.11667E+01  0.11226E+00  0.16667E+00  0.11006E+01  0.70341E+00  0.67691E-01
  0.12500E+01  0.12028E+00  0.16667E+00  0.11272E+01  0.65645E+00  0.63177E-01
  0.13333E+01  0.12830E+00  0.16667E+00  0.11473E+01  0.61534E+00  0.59235E-01
  0.14167E+01  0.13632E+00  0.16667E+00  0.11628E+01  0.57925E+00  0.55743E-01
  0.15000E+01  0.14434E+00  0.16667E+00  0.11755E+01  0.54683E+00  0.52657E-01
  0.10000E+01  0.14434E+00  0.16667E+00  0.10097E+01  0.81151E+00  0.11708E+00
  0.10833E+01  0.15637E+00  0.16667E+00  0.10665E+01  0.74881E+00  0.10813E+00
  0.11667E+01  0.16839E+00  0.16667E+00  0.11031E+01  0.69544E+00  0.10039E+00
  0.12500E+01  0.18042E+00  0.16667E+00  0.11291E+01  0.64902E+00  0.93691E-01
  0.13333E+01  0.19245E+00  0.16667E+00  0.11489E+01  0.60838E+00  0.87845E-01
  0.14167E+01  0.20448E+00  0.16667E+00  0.11642E+01  0.57270E+00  0.82667E-01
  0.15000E+01  0.21651E+00  0.16667E+00  0.11766E+01  0.54065E+00  0.78090E-01
  0.10000E+01  0.19245E+00  0.16667E+00  0.10165E+01  0.79881E+00  0.15367E+00
  0.10833E+01  0.20849E+00  0.16667E+00  0.10710E+01  0.73712E+00  0.14192E+00
  0.11667E+01  0.22453E+00  0.16667E+00  0.11064E+01  0.68457E+00  0.13176E+00
  0.12500E+01  0.24056E+00  0.16667E+00  0.11317E+01  0.63889E+00  0.12297E+00
  0.13333E+01  0.25660E+00  0.16667E+00  0.11511E+01  0.59889E+00  0.11530E+00
  0.14167E+01  0.27264E+00  0.16667E+00  0.11660E+01  0.56376E+00  0.10850E+00
  0.15000E+01  0.28868E+00  0.16667E+00  0.11782E+01  0.53224E+00  0.10249E+00
  0.10000E+01  0.24056E+00  0.16667E+00  0.10246E+01  0.78306E+00  0.18831E+00
  0.10833E+01  0.26061E+00  0.16667E+00  0.10764E+01  0.72262E+00  0.17390E+00
  0.11667E+01  0.28066E+00  0.16667E+00  0.11105E+01  0.67109E+00  0.16145E+00
  0.12500E+01  0.30070E+00  0.16667E+00  0.11350E+01  0.62632E+00  0.15069E+00
  0.13333E+01  0.32075E+00  0.16667E+00  0.11537E+01  0.58712E+00  0.14128E+00
  0.14167E+01  0.34080E+00  0.16667E+00  0.11682E+01  0.55266E+00  0.13296E+00
  0.15000E+01  0.36084E+00  0.16667E+00  0.11801E+01  0.52179E+00  0.12559E+00
  0.10000E+01  0.28868E+00  0.16667E+00  0.10338E+01  0.76463E+00  0.22067E+00
  0.10833E+01  0.31273E+00  0.16667E+00  0.10825E+01  0.70565E+00  0.20377E+00
  0.11667E+01  0.33679E+00  0.16667E+00  0.11151E+01  0.65532E+00  0.18919E+00
  0.12500E+01  0.36084E+00  0.16667E+00  0.11387E+01  0.61160E+00  0.17657E+00
  0.13333E+01  0.38490E+00  0.16667E+00  0.11568E+01  0.57333E+00  0.16555E+00
  0.14167E+01  0.40896E+00  0.16667E+00  0.11708E+01  0.53968E+00  0.15580E+00
  0.15000E+01  0.43301E+00  0.16667E+00  0.11823E+01  0.50955E+00  0.14716E+00
  0.10000E+01 -0.34677E-16  0.25000E+00  0.10002E+01  0.82845E+00  0.25723E-06
  0.10833E+01 -0.27018E-16  0.25000E+00  0.10605E+01  0.76438E+00  0.25355E-06
  0.11667E+01 -0.10593E-16  0.25000E+00  0.10986E+01  0.70992E+00  0.16708E-06
  0.12500E+01  0.88169E-17  0.25000E+00  0.11256E+01  0.66252E+00  0.17226E-06
  0.13333E+01 -0.18255E-16  0.25000E+00  0.11460E+01  0.62102E+00  0.18467E-06
  0.14167E+01 -0.36487E-16  0.25000E+00  0.11617E+01  0.58461E+00  0.12245E-06
  0.15000E+01  0.46987E-16  0.25000E+00  0.11746E+01  0.55186E+00  0.16781E-06
  0.10000E+01  0.48113E-01  0.25000E+00  0.10013E+01  0.82653E+00  0.39745E-01
  0.10833E+01  0.52122E-01  0.25000E+00  0.10611E+01  0.76262E+00  0.36711E-01
  0.11667E+01  0.56131E-01  0.25000E+00  0.10991E+01  0.70828E+00  0.34080E-01
  0.12500E+01  0.60141E-01  0.25000E+00  0.11260E+01  0.66099E+00  0.31807E-01
  0.13333E+01  0.64150E-01  0.25000E+00  0.11464E+01  0.61959E+00  0.29823E-01
  0.14167E+01  0.68159E-01  0.25000E+00  0.11620E+01  0.58326E+00  0.28064E-01
  0.15000E+01  0.72169E-01  0.25000E+00  0.11748E+01  0.55060E+00  0.26511E-01
  0.10000E+01  0.96225E-01  0.25000E+00  0.10045E+01  0.82083E+00  0.78945E-01
  0.10833E+01  0.10424E+00  0.25000E+00  0.10632E+01  0.75738E+00  0.72916E-01
  0.11667E+01  0.11226E+00  0.25000E+00  0.11006E+01  0.70341E+00  0.67691E-01
  0.12500E+01  0.12028E+00  0.25000E+00  0.11272E+01  0.65645E+00  0.63177E-01
  0.13333E+01  0.12830E+00  0.25000E+00  0.11473E+01  0.61534E+00  0.59235E-01
  0.14167E+01  0.13632E+00  0.25000E+00  0.11628E+01  0.57925E+00  0.55743E-01
  0.15000E+01  0.14434E+00  0.25000E+00  0.11755E+01  0.54683E+00  0.52657E-01
  0.10000E+01  0.14434E+00  0.25000E+00  0.10097E+01  0.81151E+00  0.11708E+00
  0.10833E+01  0.15637E+00  0.25000E+00  0.10665E+01  0.74881E+00  0.10813E+00
  0.11667E+01  0.16839E+00  0.25000E+00  0.11031E+01  0.69544E+00  0.10039E+00
  0.12500E+01  0.18042E+00  0.25000E+00  0.11291E+01  0.64902E+00  0.93691E-01
  0.13333E+01  0.19245E+00  0.25000E+00  0.11489E+01  0.60838E+00  0.87845E-01
  0.14167E+01  0.20448E+00  0.25000E+00  0.11642E+01  0.57270E+00  0.82667E-01
  0.15000E+01  0.21651E+00  0.25000E+00  0.11766E+01  0.54065E+00  0.78090E-01
  0.10000E+01  0.19245E+00  0.25000E+00  0.10165E+01  0.79881E+00  0.15367E+00
  0.10833E+01  0.20849E+00  0.25000E+00  0.10710E+01  0.73712E+00  0.14192E+00
  0.11667E+01  0.22453E+00  0.25000E+00  0.11064E+01  0.68457E+00  0.13176E+00
  0.12500E+01  0.24056E+00  0.25000E+00  0.11317E+01  0.63889E+00  0.12297E+00
  0.13333E+01  0.25660E+00  0.25000E+00  0.11511E+01  0.59889E+00  0.11530E+00
  0.14167E+01  0.27264E+00  0.25000E+00  0.11660E+01  0.56376E+00  0.10850E+00
  0.15000E+01  0.28868E+00  0.25000E+00  0.11782E+01  0.53224E+00  0.10249E+00
  0.10000E+01  0.24056E+00  0.25000E+00  0.10246E+01  0.78306E+00  0.18831E+00
  0.10833E+01  0.26061E+00  0.25000E+00  0.10764E+01  0.72262E+00  0.17390E+00
  0.11667E+01  0.28066E+00  0.25000E+00  0.11105E+01  0.67109E+00  0.16145E+00
  0.12500E+01  0.30070E+00  0.25000E+00  0.11350E+01  0.62632E+00  0.15069E+00
  0.13333E+01  0.32075E+00  0.25000E+00  0.11537E+01  0.58712E+00  0.14128E+00
  0.14167E+01  0.34080E+00  0.25000E+00  0.11682E+01  0.55266E+00  0.13296E+00
  0.15000E+01  0.36084E+00  0.25000E+00  0.11801E+01  0.52179E+00  0.12559E+00
  0.10000E+01  0.28868E+00  0.25000E+00  0.10338E+01  0.76463E+00  0.22067E+00
  0.10833E+01  0.31273E+00  0.25000E+00  0.10825E+01  0.70565E+00  0.20377E+00
  0.11667E+01  0.33679E+00  0.25000E+00  0.11151E+01  0.65532E+00  0.18919E+00
  0.12500E+01  0.36084E+00  0.25000E+00  0.11387E+01  0.61160E+00  0.17657E+00
  0.13333E+01  0.38490E+00  0.25000E+00  0.11568E+01  0.57333E+00  0.16555E+00
  0.14167E+01  0.40896E+00  0.25000E+00  0.11708E+01  0.53968E+00  0.15580E+00
  0.15000E+01  0.43301E+00  0.25000E+00  0.11823E+01  0.50955E+00  0.14716E+00
  0.10000E+01 -0.25568E-16  0.33333E+00  0.10002E+01  0.82845E+00  0.25723E-06
  0.10833E+01 -0.23838E-16  0.33333E+00  0.10605E+01  0.76438E+00  0.25355E-06
  0.11667E+01 -0.85220E-17  0.33333E+00  0.10986E+01  0.70992E+00  0.16708E-06
  0.12500E+01 -0.74861E-17  0.33333E+00  0.11256E+01  0.66252E+00  0.17226E-06
  0.13333E+01 -0.47866E-17  0.33333E+00  0.11460E+01  0.62102E+00  0.18467E-06
  0.14167E+01 -0.20192E-16  0.33333E+00  0.11617E+01  0.58461E+00  0.12245E-06
  0.15000E+01  0.10311E-15  0.33333E+00  0.11746E+01  0.55186E+00  0.16781E-06
  0.10000E+01  0.48113E-01  0.33333E+00  0.10013E+01  0.82653E+00  0.39745E-01
  0.10833E+01  0.52122E-01  0.33333E+00  0.10611E+01  0.76262E+00  0.36711E-01
  0.11667E+01  0.56131E-01  0.33333E+00  0.10991E+01  0.70828E+00  0.34080E-01
  0.12500E+01  0.60141E-01  0.33333E+00  0.11260E+01  0.66099E+00  0.31807E-01
  0.13333E+01  0.64150E-01  0.33333E+00  0.11464E+01  0.61959E+00  0.29823E-01
  0.14167E+01  0.68159E-01  0.33333E+00  0.11620E+01  0.58326E+00  0.28064E-01
  0.15000E+01  0.72169E-01  0.33333E+00  0.11748E+01  0.55060E+00  0.26511E-01
  0.10000E+01  0.96225E-01  0.33333E+00  0.10045E+01  0.82083E+00  0.78945E-01
  0.10833E+01  0.10424E+00  0.33333E+00  0.10632E+01  0.75738E+00  0.72916E-01
  0.11667E+01  0.11226E+00  0.33333E+00  0.11006E+01  0.70341E+00  0.67691E-01
  0.12500E+01  0.12028E+00  0.33333E+00  0.11272E+01  0.65645E+00  0.63177E-01
  0.13333E+01  0.12830E+00  0.33333E+00  0.11473E+01  0.61534E+00  0.59235E-01
  0.14167E+01  0.13632E+00  0.33333E+00  0.11628E+01  0.57925E+00  0.55743E-01
  0.15000E+01  0.14434E+00  0.33333E+00  0.11755E+01  0.54683E+00  0.52657E-01
  0.10000E+01  0.14434E+00  0.33333E+00  0.10097E+01  0.81151E+00  0.11708E+00
  0.10833E+01  0.15637E+00  0.33333E+00  0.10665E+01  0.74881E+00  0.10813E+00
  0.11667E+01  0.16839E+00  0.33333E+00  0.11031E+01  0.69544E+00  0.10039E+00
  0.12500E+01  0.18042E+00  0.33333E+00  0.11291E+01  0.64902E+00  0.93691E-01
  0.13333E+01  0.19245E+00  0.33333E+00  0.11489E+01  0.60838E+00  0.87845E-01
  0.14167E+01  0.20448E+00  0.33333E+00  0.11642E+01  0.57270E+00  0.82667E-01
  0.15000E+01  0.21651E+00  0.33333E+00  0.11766E+01  0.54065E+00  0.78090E-01
  0.10000E+01  0.19245E+00  0.33333E+00  0.10165E+01  0.79881E+00  0.15367E+00
  0.10833E+01  0.20849E+00  0.33333E+00  0.10710E+01  0.73712E+00  0.14192E+00
  0.11667E+01  0.22453E+00  0.33333E+00  0.11064E+01  0.68457E+00  0.13176E+00
  0.12500E+01  0.24056E+00  0.33333E+00  0.11317E+01  0.63889E+00  0.12297E+00
  0.13333E+01  0.25660E+00  0.33333E+00  0.11511E+01  0.59889E+00  0.11530E+00
  0.14167E+01  0.27264E+00  0.33333E+00  0.11660E+01  0.56376E+00  0.10850E+00
  0.15000E+01  0.28868E+00  0.33333E+00  0.11782E+01  0.53224E+00  0.10249E+00
  0.10000E+01  0.24056E+00  0.33333E+00  0.10246E+01  0.78306E+00  0.18831E+00
  0.10833E+01  0.26061E+00  0.33333E+00  0.10764E+01  0.72262E+00  0.17390E+00
  0.11667E+01  0.28066E+00  0.33333E+00  0.11105E+01  0.67109E+00  0.16145E+00
  0.12500E+01  0.30070E+00  0.33333E+00  0.11350E+01  0.62632E+00  0.15069E+00
  0.13333E+01  0.32075E+00  0.33333E+00  0.11537E+01  0.58712E+00  0.14128E+00
  0.14167E+01  0.34080E+00  0.33333E+00  0.11682E+01  0.55266E+00  0.13296E+00
  0.15000E+01  0.36084E+00  0.33333E+00  0.11801E+01  0.52179E+00  0.12559E+00
  0.10000E+01  0.28868E+00  0.33333E+00  0.10338E+01  0.76463E+00  0.22067E+00
  0.10833E+01  0.31273E+00  0.33333E+00  0.10825E+01  0.70565E+00  0.20377E+00
  0.11667E+01  0.33679E+00  0.33333E+00  0.11151E+01  0.65532E+00  0.18919E+00
  0.12500E+01  0.36084E+00  0.33333E+00  0.11387E+01  0.61160E+00  0.17657E+00
  0.13333E+01  0.38490E+00  0.33333E+00  0.11568E+01  0.57333E+00  0.16555E+00
  0.14167E+01  0.40896E+00  0.33333E+00  0.11708E+01  0.53968E+00  0.15580E+00
  0.15000E+01  0.43301E+00  0.33333E+00  0.11823E+01  0.50955E+00  0.14716E+00
  0.10000E+01  0.15849E-16  0.41667E+00  0.10002E+01  0.82845E+00  0.25723E-06
  0.10833E+01 -0.24304E-16  0.41667E+00  0.10605E+01  0.76438E+00  0.25355E-06
  0.11667E+01 -0.28061E-16  0.41667E+00  0.10986E+01  0.70992E+00  0.16708E-06
  0.12500E+01 -0.34822E-16  0.41667E+00  0.11256E+01  0.66252E+00  0.17226E-06
  0.13333E+01 -0.14122E-16  0.41667E+00  0.11460E+01  0.62102E+00  0.18467E-06
  0.14167E+01  0.35339E-16  0.41667E+00  0.11617E+01  0.58461E+00  0.12245E-06
  0.15000E+01 -0.56747E-17  0.41667E+00  0.11746E+01  0.55186E+00  0.16781E-06
  0.10000E+01  0.48113E-01  0.41667E+00  0.10013E+01  0.82653E+00  0.39745E-01
  0.10833E+01  0.52122E-01  0.41667E+00  0.10611E+01  0.76262E+00  0.36711E-01
  0.11667E+01  0.56131E-01  0.41667E+00  0.10991E+01  0.70828E+00  0.34080E-01
  0.12500E+01  0.60141E-01  0.41667E+00  0.11260E+01  0.66099E+00  0.31807E-01
  0.13333E+01  0.64150E-01  0.41667E+00  0.11464E+01  0.61959E+00  0.29823E-01
  0.14167E+01  0.68159E-01  0.41667E+00  0.11620E+01  0.58326E+00  0.28064E-01
  0.15000E+01  0.72169E-01  0.41667E+00  0.11748E+01  0.55060E+00  0.26511E-01
  0.10000E+01  0.96225E-01  0.41667E+00  0.10045E+01  0.82083E+00  0.78945E-01
  0.10833E+01  0.10424E+00  0.41667E+00  0.10632E+01  0.75738E+00  0.72916E-01
  0.11667E+01  0.11226E+00  0.41667E+00  0.11006E+01  0.70341E+00  0.67691E-01
  0.12500E+01  0.12028E+00  0.41667E+00  0.11272E+01  0.65645E+00  0.63177E-01
  0.13333E+01  0.12830E+00  0.41667E+00  0.11473E+01  0.61534E+00  0.59235E-01
  0.14167E+01  0.13632E+00  0.41667E+00  0.11628E+01  0.57925E+00  0.55743E-01
  0.15000E+01  0.14434E+00  0.41667E+00  0.11755E+01  0.54683E+00  0.52657E-01
  0.10000E+01  0.14434E+00  0.41667E+00  0.10097E+01  0.81151E+00  0.11708E+00
  0.10833E+01  0.15637E+00  0.41667E+00  0.10665E+01  0.74881E+00  0.10813E+00
  0.11667E+01  0.16839E+00  0.41667E+00  0.11031E+01  0.69544E+00  0.10039E+00
  0.12500E+01  0.18042E+00  0.41667E+00  0.11291E+01  0.64902E+00  0.93691E-01
  0.13333E+01  0.19245E+00  0.41667E+00  0.11489E+01  0.60838E+00  0.87845E-01
  0.14167E+01  0.20448E+00  0.41667E+00  0.11642E+01  0.57270E+00  0.82667E-01
  0.15000E+01  0.21651E+00  0.41667E+00  0.11766E+01  0.54065E+00  0.78090E-01
  0.10000E+01  0.19245E+00  0.41667E+00  0.10165E+01  0.79881E+00  0.15367E+00
  0.10833E+01  0.20849E+00  0.41667E+00  0.10710E+01  0.73712E+00  0.14192E+00
  0.11667E+01  0.22453E+00  0.41667E+00  0.11064E+01  0.68457E+00  0.13176E+00
  0.12500E+01  0.24056E+00  0.41667E+00  0.11317E+01  0.63889E+00  0.12297E+00
  0.13333E+01  0.25660E+00  0.41667E+00  0.11511E+01  0.59889E+00  0.11530E+00
  0.14167E+01  0.27264E+00  0.41667E+00  0.11660E+01  0.56376E+00  0.10850E+00
  0.15000E+01  0.28868E+00  0.41667E+00  0.11782E+01  0.53224E+00  0.10249E+00
  0.10000E+01  0.24056E+00  0.41667E+00  0.10246E+01  0.78306E+00  0.18831E+00
  0.10833E+01  0.26061E+00  0.41667E+00  0.10764E+01  0.72262E+00  0.17390E+00
  0.11667E+01  0.28066E+00  0.41667E+00  0.11105E+01  0.67109E+00  0.16145E+00
  0.12500E+01  0.30070E+00  0.41667E+00  0.11350E+01  0.62632E+00  0.15069E+00
  0.13333E+01  0.32075E+00  0.41667E+00  0.11537E+01  0.58712E+00  0.14128E+00
  0.14167E+01  0.34080E+00  0.41667E+00  0.11682E+01  0.55266E+00  0.13296E+00
  0.15000E+01  0.36084E+00  0.41667E+00  0.11801E+01  0.52179E+00  0.12559E+00
  0.10000E+01  0.28868E+00  0.41667E+00  0.10338E+01  0.76463E+00  0.22067E+00
  0.10833E+01  0.31273E+00  0.41667E+00  0.10825E+01  0.70565E+00  0.20377E+00
  0.11667E+01  0.33679E+00  0.41667E+00  0.11151E+01  0.65532E+00  0.18919E+00
  0.12500E+01  0.36084E+00  0.41667E+00  0.11387E+01  0.61160E+00  0.17657E+00
  0.13333E+01  0.38490E+00  0.41667E+00  0.11568E+01  0.57333E+00  0.16555E+00
  0.14167E+01  0.40896E+00  0.41667E+00  0.11708E+01  0.53968E+00  0.15580E+00
  0.15000E+01  0.43301E+00  0.41667E+00  0.11823E+01  0.50955E+00  0.14716E+00
  0.10000E+01 -0.97372E-16  0.50000E+00  0.10002E+01  0.82845E+00  0.25723E-06
  0.10833E+01 -0.23745E-16  0.50000E+00  0.10605E+01  0.76438E+00  0.25355E-06
  0.11667E+01  0.76349E-17  0.50000E+00  0.10986E+01  0.70992E+00  0.16708E-06
  0.12500E+01  0.42003E-16  0.50000E+00  0.11256E+01  0.66252E+00  0.17226E-06
  0.13333E+01  0.83516E-17  0.50000E+00  0.11460E+01  0.62102E+00  0.18467E-06
  0.14167E+01 -0.32076E-16  0.50000E+00  0.11617E+01  0.58461E+00  0.12245E-06
  0.15000E+01  0.69597E-16  0.50000E+00  0.11746E+01  0.55186E+00  0.16781E-06
  0.10000E+01  0.48113E-01  0.50000E+00  0.10013E+01  0.82653E+00  0.39745E-01
  0.10833E+01  0.52122E-01  0.50000E+00  0.10611E+01  0.76262E+00  0.36711E-01
  0.11667E+01  0.56131E-01  0.50000E+00  0.10991E+01  0.70828E+00  0.34080E-01
  0.12500E+01  0.60141E-01  0.50000E+00  0.11260E+01  0.66099E+00  0.31807E-01
  0.13333E+01  0.64150E-01  0.50000E+00  0.11464E+01  0.61959E+00  0.29823E-01
  0.14167E+01  0.68159E-01  0.50000E+00  0.11620E+01  0.58326E+00  0.28064E-01
  0.15000E+01  0.72169E-01  0.50000E+00  0.11748E+01  0.55060E+00  0.26511E-01
  0.10000E+01  0.96225E-01  0.50000E+00  0.10045E+01  0.82083E+00  0.78945E-01
  0.10833E+01  0.10424E+00  0.50000E+00  0.10632E+01  0.75738E+00  0.72916E-01
  0.11667E+01  0.11226E+00  0.50000E+00  0.11006E+01  0.70341E+00  0.67691E-01
  0.12500E+01  0.12028E+00  0.50000E+00  0.11272E+01  0.65645E+00  0.63177E-01
  0.13333E+01  0.12830E+00  0.50000E+00  0.11473E+01  0.61534E+00  0.59235E-01
  0.14167E+01  0.13632E+00  0.50000E+00  0.11628E+01  0.57925E+00  0.55743E-01
  0.15000E+01  0.14434E+00  0.50000E+00  0.11755E+01  0.54683E+00  0.52657E-01
  0.10000E+01  0.14434E+00  0.50000E+00  0.10097E+01  0.81151E+00  0.11708E+00
  0.10833E+01  0.15637E+00  0.50000E+00  0.10665E+01  0.74881E+00  0.10813E+00
  0.11667E+01  0.16839E+00  0.50000E+00  0.11031E+01  0.69544E+00  0.10039E+00
  0.12500E+01  0.18042E+00  0.50000E+00  0.11291E+01  0.64902E+00  0.93691E-01
  0.13333E+01  0.19245E+00  0.50000E+00  0.11489E+01  0.60838E+00  0.87845E-01
  0.14167E+01  0.20448E+00  0.50000E+00  0.11642E+01  0.57270E+00  0.82667E-01
  0.15000E+01  0.21651E+00  0.50000E+00  0.11766E+01  0.54065E+00  0.78090E-01
  0.10000E+01  0.19245E+00  0.50000E+00  0.10165E+01  0.79881E+00  0.15367E+00
  0.10833E+01  0.20849E+00  0.50000E+00  0.10710E+01  0.73712E+00  0.14192E+00
  0.11667E+01  0.22453E+00  0.50000E+00  0.11064E+01  0.68457E+00  0.13176E+00
  0.12500E+01  0.24056E+00  0.50000E+00  0.11317E+01  0.63889E+00  0.12297E+00
  0.13333E+01  0.25660E+00  0.50000E+00  0.11511E+01  0.59889E+00  0.11530E+00
  0.14167E+01  0.27264E+00  0.50000E+00  0.11660E+01  0.56376E+00  0.10850E+00
  0.15000E+01  0.28868E+00  0.50000E+00  0.11782E+01  0.53224E+00  0.10249E+00
  0.10000E+01  0.24056E+00  0.50000E+00  0.10246E+01  0.78306E+00  0.18831E+00
  0.10833E+01  0.26061E+00  0.50000E+00  0.10764E+01  0.72262E+00  0.17390E+00
  0.11667E+01  0.28066E+00  0.50000E+00  0.11105E+01  0.67109E+00  0.16145E+00
  0.12500E+01  0.30070E+00  0.50000E+00  0.11350E+01  0.62632E+00  0.15069E+00
  0.13333E+01  0.32075E+00  0.50000E+00  0.11537E+01  0.58712E+00  0.14128E+00
  0.14167E+01  0.34080E+00  0.50000E+00  0.11682E+01  0.55266E+00  0.13296E+00
  0.15000E+01  0.36084E+00  0.50000E+00  0.11801E+01  0.52179E+00  0.12559E+00
  0.10000E+01  0.28868E+00  0.50000E+00  0.10338E+01  0.76463E+00  0.22067E+00
  0.10833E+01  0.31273E+00  0.50000E+00  0.10825E+01  0.70565E+00  0.20377E+00
  0.11667E+01  0.33679E+00  0.50000E+00  0.11151E+01  0.65532E+00  0.18919E+00
  0.12500E+01  0.36084E+00  0.50000E+00  0.11387E+01  0.61160E+00  0.17657E+00
  0.13333E+01  0.38490E+00  0.50000E+00  0.11568E+01  0.57333E+00  0.16555E+00
  0.14167E+01  0.40896E+00  0.50000E+00  0.11708E+01  0.53968E+00  0.15580E+00
  0.15000E+01  0.43301E+00  0.50000E+00  0.11823E+01  0.50955E+00  0.14716E+00
 ZONE I=           7 ,J=           7 ,K=           7 , F=POINT
  0.15000E+01  0.68789E-17 -0.10061E-15  0.11744E+01  0.55197E+00  0.19731E-06
  0.15833E+01 -0.58544E-16 -0.17347E-16  0.11846E+01  0.52304E+00  0.10095E-06
  0.16667E+01 -0.21787E-17  0.17347E-16  0.11932E+01  0.49682E+00  0.60963E-07
  0.17500E+01 -0.20921E-16  0.79797E-16  0.12003E+01  0.47319E+00  0.82706E-07
  0.18333E+01 -0.36699E-18 -0.34694E-17  0.12064E+01  0.45171E+00  0.56192E-08
  0.19167E+01 -0.40470E-16 -0.10408E-16  0.12116E+01  0.43202E+00 -0.20968E-06
  0.20000E+01 -0.94899E-16 -0.17347E-16  0.12161E+01  0.41413E+00 -0.19433E-06
  0.15000E+01  0.72169E-01  0.27756E-16  0.11746E+01  0.55071E+00  0.26508E-01
  0.15833E+01  0.76178E-01  0.27756E-16  0.11848E+01  0.52183E+00  0.25109E-01
  0.16667E+01  0.80188E-01 -0.13878E-16  0.11933E+01  0.49568E+00  0.23852E-01
  0.17500E+01  0.84197E-01  0.17347E-16  0.12005E+01  0.47210E+00  0.22717E-01
  0.18333E+01  0.88206E-01 -0.17347E-16  0.12065E+01  0.45067E+00  0.21682E-01
  0.19167E+01  0.92216E-01  0.27756E-16  0.12117E+01  0.43103E+00  0.20733E-01
  0.20000E+01  0.96225E-01 -0.34694E-17  0.12162E+01  0.41318E+00  0.19874E-01
  0.15000E+01  0.14434E+00 -0.20817E-16  0.11753E+01  0.54693E+00  0.52651E-01
  0.15833E+01  0.15236E+00 -0.34694E-17  0.11854E+01  0.51825E+00  0.49872E-01
  0.16667E+01  0.16038E+00 -0.69389E-16  0.11939E+01  0.49228E+00  0.47376E-01
  0.17500E+01  0.16839E+00 -0.31225E-16  0.12010E+01  0.46886E+00  0.45122E-01
  0.18333E+01  0.17641E+00 -0.10408E-16  0.12070E+01  0.44758E+00  0.43067E-01
  0.19167E+01  0.18443E+00  0.24286E-16  0.12121E+01  0.42807E+00  0.41182E-01
  0.20000E+01  0.19245E+00  0.69389E-17  0.12166E+01  0.41034E+00  0.39474E-01
  0.15000E+01  0.21651E+00 -0.17347E-16  0.11765E+01  0.54075E+00  0.78081E-01
  0.15833E+01  0.22853E+00 -0.20817E-16  0.11864E+01  0.51239E+00  0.73961E-01
  0.16667E+01  0.24056E+00 -0.10408E-16  0.11948E+01  0.48672E+00  0.70260E-01
  0.17500E+01  0.25259E+00  0.00000E+00  0.12017E+01  0.46356E+00  0.66917E-01
  0.18333E+01  0.26462E+00  0.20817E-16  0.12077E+01  0.44251E+00  0.63869E-01
  0.19167E+01  0.27665E+00  0.48572E-16  0.12128E+01  0.42323E+00  0.61077E-01
  0.20000E+01  0.28868E+00 -0.24286E-16  0.12171E+01  0.40569E+00  0.58542E-01
  0.15000E+01  0.28868E+00 -0.13878E-16  0.11780E+01  0.53232E+00  0.10248E+00
  0.15833E+01  0.30471E+00 -0.24286E-16  0.11878E+01  0.50439E+00  0.97076E-01
  0.16667E+01  0.32075E+00 -0.55511E-16  0.11960E+01  0.47913E+00  0.92219E-01