TITLE = "Points"
VARIABLES = "x","y","z"
ZONE I=6528,J=2,K=1, DATAPACKING=POINT
  0.19873E+01  0.11663E-01  0.34716E-02
  0.19873E+01  0.11663E-01  0.16500E-01
  0.19873E+01  0.11663E-01  0.33500E-01
  0.19873E+01  0.11663E-01  0.46528E-01
  0.19873E+01  0.11197E-01  0.34716E-02
  0.19873E+01  0.11197E-01  0.16500E-01
  0.19873E+01  0.11197E-01  0.33500E-01
  0.19873E+01  0.11197E-01  0.46528E-01
  0.19873E+01  0.10590E-01  0.34716E-02
  0.19873E+01  0.10590E-01  0.16500E-01
  0.19873E+01  0.10590E-01  0.33500E-01
  0.19873E+01  0.10590E-01  0.46528E-01
  0.19873E+01  0.10124E-01  0.34716E-02
  0.19873E+01  0.10124E-01  0.16500E-01
  0.19873E+01  0.10124E-01  0.33500E-01
  0.19873E+01  0.10124E-01  0.46528E-01
  0.19394E+01  0.11663E-01  0.34716E-02
  0.19394E+01  0.11663E-01  0.16500E-01
  0.19394E+01  0.11663E-01  0.33500E-01
  0.19394E+01  0.11663E-01  0.46528E-01
  0.19394E+01  0.11197E-01  0.34716E-02
  0.19394E+01  0.11197E-01  0.16500E-01
  0.19394E+01  0.11197E-01  0.33500E-01
  0.19394E+01  0.11197E-01  0.46528E-01
  0.19394E+01  0.10590E-01  0.34716E-02
  0.19394E+01  0.10590E-01  0.16500E-01
  0.19394E+01  0.10590E-01  0.33500E-01
  0.19394E+01  0.10590E-01  0.46528E-01
  0.19394E+01  0.10124E-01  0.34716E-02
  0.19394E+01  0.10124E-01  0.16500E-01
  0.19394E+01  0.10124E-01  0.33500E-01
  0.19394E+01  0.10124E-01  0.46528E-01
  0.18770E+01  0.11663E-01  0.34716E-02
  0.18770E+01  0.11663E-01  0.16500E-01
  0.18770E+01  0.11663E-01  0.33500E-01
  0.18770E+01  0.11663E-01  0.46528E-01
  0.18770E+01  0.11197E-01  0.34716E-02
  0.18770E+01  0.11197E-01  0.16500E-01
  0.18770E+01  0.11197E-01  0.33500E-01
  0.18770E+01  0.11197E-01  0.46528E-01
  0.18770E+01  0.10590E-01  0.34716E-02
  0.18770E+01  0.10590E-01  0.16500E-01
  0.18770E+01  0.10590E-01  0.33500E-01
  0.18770E+01  0.10590E-01  0.46528E-01
  0.18770E+01  0.10124E-01  0.34716E-02
  0.18770E+01  0.10124E-01  0.16500E-01
  0.18770E+01  0.10124E-01  0.33500E-01
  0.18770E+01  0.10124E-01  0.46528E-01
  0.18292E+01  0.11663E-01  0.34716E-02
  0.18292E+01  0.11663E-01  0.16500E-01
  0.18292E+01  0.11663E-01  0.33500E-01
  0.18292E+01  0.11663E-01  0.46528E-01
  0.18292E+01  0.11197E-01  0.34716E-02
  0.18292E+01  0.11197E-01  0.16500E-01
  0.18292E+01  0.11197E-01  0.33500E-01
  0.18292E+01  0.11197E-01  0.46528E-01
  0.18292E+01  0.10590E-01  0.34716E-02
  0.18292E+01  0.10590E-01  0.16500E-01
  0.18292E+01  0.10590E-01  0.33500E-01
  0.18292E+01  0.10590E-01  0.46528E-01
  0.18292E+01  0.10124E-01  0.34716E-02
  0.18292E+01  0.10124E-01  0.16500E-01
  0.18292E+01  0.10124E-01  0.33500E-01
  0.18292E+01  0.10124E-01  0.46528E-01
  0.19873E+01  0.11663E-01  0.53472E-01
  0.19873E+01  0.11663E-01  0.66500E-01
  0.19873E+01  0.11663E-01  0.83500E-01
  0.19873E+01  0.11663E-01  0.96528E-01
  0.19873E+01  0.11197E-01  0.53472E-01
  0.19873E+01  0.11197E-01  0.66500E-01
  0.19873E+01  0.11197E-01  0.83500E-01
  0.19873E+01  0.11197E-01  0.96528E-01
  0.19873E+01  0.10590E-01  0.53472E-01
  0.19873E+01  0.10590E-01  0.66500E-01
  0.19873E+01  0.10590E-01  0.83500E-01
  0.19873E+01  0.10590E-01  0.96528E-01
  0.19873E+01  0.10124E-01  0.53472E-01
  0.19873E+01  0.10124E-01  0.66500E-01
  0.19873E+01  0.10124E-01  0.83500E-01
  0.19873E+01  0.10124E-01  0.96528E-01
  0.19394E+01  0.11663E-01  0.53472E-01
  0.19394E+01  0.11663E-01  0.66500E-01
  0.19394E+01  0.11663E-01  0.83500E-01
  0.19394E+01  0.11663E-01  0.96528E-01
  0.19394E+01  0.11197E-01  0.53472E-01
  0.19394E+01  0.11197E-01  0.66500E-01
  0.19394E+01  0.11197E-01  0.83500E-01
  0.19394E+01  0.11197E-01  0.96528E-01
  0.19394E+01  0.10590E-01  0.53472E-01
  0.19394E+01  0.10590E-01  0.66500E-01
  0.19394E+01  0.10590E-01  0.83500E-01
  0.19394E+01  0.10590E-01  0.96528E-01
  0.19394E+01  0.10124E-01  0.53472E-01
  0.19394E+01  0.10124E-01  0.66500E-01
  0.19394E+01  0.10124E-01  0.83500E-01
  0.19394E+01  0.10124E-01  0.96528E-01
  0.18770E+01  0.11663E-01  0.53472E-01
  0.18770E+01  0.11663E-01  0.66500E-01
  0.18770E+01  0.11663E-01  0.83500E-01
  0.18770E+01  0.11663E-01  0.96528E-01
  0.18770E+01  0.11197E-01  0.53472E-01
  0.18770E+01  0.11197E-01  0.66500E-01
  0.18770E+01  0.11197E-01  0.83500E-01
  0.18770E+01  0.11197E-01  0.96528E-01
  0.18770E+01  0.10590E-01  0.53472E-01
  0.18770E+01  0.10590E-01  0.66500E-01
  0.18770E+01  0.10590E-01  0.83500E-01
  0.18770E+01  0.10590E-01  0.96528E-01
  0.18770E+01  0.10124E-01  0.53472E-01
  0.18770E+01  0.10124E-01  0.66500E-01
  0.18770E+01  0.10124E-01  0.83500E-01
  0.18770E+01  0.10124E-01  0.96528E-01
  0.18292E+01  0.11663E-01  0.53472E-01
  0.18292E+01  0.11663E-01  0.66500E-01
  0.18292E+01  0.11663E-01  0.83500E-01
  0.18292E+01  0.11663E-01  0.96528E-01
  0.18292E+01  0.11197E-01  0.53472E-01
  0.18292E+01  0.11197E-01  0.66500E-01
  0.18292E+01  0.11197E-01  0.83500E-01
  0.18292E+01  0.11197E-01  0.96528E-01
  0.18292E+01  0.10590E-01  0.53472E-01
  0.18292E+01  0.10590E-01  0.66500E-01
  0.18292E+01  0.10590E-01  0.83500E-01
  0.18292E+01  0.10590E-01  0.96528E-01
  0.18292E+01  0.10124E-01  0.53472E-01
  0.18292E+01  0.10124E-01  0.66500E-01
  0.18292E+01  0.10124E-01  0.83500E-01
  0.18292E+01  0.10124E-01  0.96528E-01
  0.19873E+01  0.12406E-01  0.34716E-02
  0.19873E+01  0.12406E-01  0.16500E-01
  0.19873E+01  0.12406E-01  0.33500E-01
  0.19873E+01  0.12406E-01  0.46528E-01
  0.19873E+01  0.11917E-01  0.34716E-02
  0.19873E+01  0.11917E-01  0.16500E-01
  0.19873E+01  0.11917E-01  0.33500E-01
  0.19873E+01  0.11917E-01  0.46528E-01
  0.19394E+01  0.12406E-01  0.34716E-02
  0.19394E+01  0.12406E-01  0.16500E-01
  0.19394E+01  0.12406E-01  0.33500E-01
  0.19394E+01  0.12406E-01  0.46528E-01
  0.19394E+01  0.11917E-01  0.34716E-02
  0.19394E+01  0.11917E-01  0.16500E-01
  0.19394E+01  0.11917E-01  0.33500E-01
  0.19394E+01  0.11917E-01  0.46528E-01
  0.18770E+01  0.12406E-01  0.34716E-02
  0.18770E+01  0.12406E-01  0.16500E-01
  0.18770E+01  0.12406E-01  0.33500E-01
  0.18770E+01  0.12406E-01  0.46528E-01
  0.18770E+01  0.11917E-01  0.34716E-02
  0.18770E+01  0.11917E-01  0.16500E-01
  0.18770E+01  0.11917E-01  0.33500E-01
  0.18770E+01  0.11917E-01  0.46528E-01
  0.18292E+01  0.12406E-01  0.34716E-02
  0.18292E+01  0.12406E-01  0.16500E-01
  0.18292E+01  0.12406E-01  0.33500E-01
  0.18292E+01  0.12406E-01  0.46528E-01
  0.18292E+01  0.11917E-01  0.34716E-02
  0.18292E+01  0.11917E-01  0.16500E-01
  0.18292E+01  0.11917E-01  0.33500E-01
  0.18292E+01  0.11917E-01  0.46528E-01
  0.19873E+01  0.12406E-01  0.53472E-01
  0.19873E+01  0.12406E-01  0.66500E-01
  0.19873E+01  0.12406E-01  0.83500E-01
  0.19873E+01  0.12406E-01  0.96528E-01
  0.19873E+01  0.11917E-01  0.53472E-01
  0.19873E+01  0.11917E-01  0.66500E-01
  0.19873E+01  0.11917E-01  0.83500E-01
  0.19873E+01  0.11917E-01  0.96528E-01
  0.19394E+01  0.12406E-01  0.53472E-01
  0.19394E+01  0.12406E-01  0.66500E-01
  0.19394E+01  0.12406E-01  0.83500E-01
  0.19394E+01  0.12406E-01  0.96528E-01
  0.19394E+01  0.11917E-01  0.53472E-01
  0.19394E+01  0.11917E-01  0.66500E-01
  0.19394E+01  0.11917E-01  0.83500E-01
  0.19394E+01  0.11917E-01  0.96528E-01
  0.18770E+01  0.12406E-01  0.53472E-01
  0.18770E+01  0.12406E-01  0.66500E-01
  0.18770E+01  0.12406E-01  0.83500E-01
  0.18770E+01  0.12406E-01  0.96528E-01
  0.18770E+01  0.11917E-01  0.53472E-01
  0.18770E+01  0.11917E-01  0.66500E-01
  0.18770E+01  0.11917E-01  0.83500E-01
  0.18770E+01  0.11917E-01  0.96528E-01
  0.18292E+01  0.12406E-01  0.53472E-01
  0.18292E+01  0.12406E-01  0.66500E-01
  0.18292E+01  0.12406E-01  0.83500E-01
  0.18292E+01  0.12406E-01  0.96528E-01
  0.18292E+01  0.11917E-01  0.53472E-01
  0.18292E+01  0.11917E-01  0.66500E-01
  0.18292E+01  0.11917E-01  0.83500E-01
  0.18292E+01  0.11917E-01  0.96528E-01
  0.18049E+01  0.11663E-01  0.34716E-02
  0.18049E+01  0.11663E-01  0.16500E-01
  0.18049E+01  0.11663E-01  0.33500E-01
  0.18049E+01  0.11663E-01  0.46528E-01
  0.18049E+01  0.11197E-01  0.34716E-02
  0.18049E+01  0.11197E-01  0.16500E-01
  0.18049E+01  0.11197E-01  0.33500E-01
  0.18049E+01  0.11197E-01  0.46528E-01
  0.18049E+01  0.10590E-01  0.34716E-02
  0.18049E+01  0.10590E-01  0.16500E-01
  0.18049E+01  0.10590E-01  0.33500E-01
  0.18049E+01  0.10590E-01  0.46528E-01
  0.18049E+01  0.10124E-01  0.34716E-02
  0.18049E+01  0.10124E-01  0.16500E-01
  0.18049E+01  0.10124E-01  0.33500E-01
  0.18049E+01  0.10124E-01  0.46528E-01
  0.17614E+01  0.11663E-01  0.34716E-02
  0.17614E+01  0.11663E-01  0.16500E-01
  0.17614E+01  0.11663E-01  0.33500E-01
  0.17614E+01  0.11663E-01  0.46528E-01
  0.17614E+01  0.11197E-01  0.34716E-02
  0.17614E+01  0.11197E-01  0.16500E-01
  0.17614E+01  0.11197E-01  0.33500E-01
  0.17614E+01  0.11197E-01  0.46528E-01
  0.17614E+01  0.10590E-01  0.34716E-02
  0.17614E+01  0.10590E-01  0.16500E-01
  0.17614E+01  0.10590E-01  0.33500E-01
  0.17614E+01  0.10590E-01  0.46528E-01
  0.17614E+01  0.10124E-01  0.34716E-02
  0.17614E+01  0.10124E-01  0.16500E-01
  0.17614E+01  0.10124E-01  0.33500E-01
  0.17614E+01  0.10124E-01  0.46528E-01
  0.17047E+01  0.11663E-01  0.34716E-02
  0.17047E+01  0.11663E-01  0.16500E-01
  0.17047E+01  0.11663E-01  0.33500E-01
  0.17047E+01  0.11663E-01  0.46528E-01
  0.17047E+01  0.11197E-01  0.34716E-02
  0.17047E+01  0.11197E-01  0.16500E-01
  0.17047E+01  0.11197E-01  0.33500E-01
  0.17047E+01  0.11197E-01  0.46528E-01
  0.17047E+01  0.10590E-01  0.34716E-02
  0.17047E+01  0.10590E-01  0.16500E-01
  0.17047E+01  0.10590E-01  0.33500E-01
  0.17047E+01  0.10590E-01  0.46528E-01
  0.17047E+01  0.10124E-01  0.34716E-02
  0.17047E+01  0.10124E-01  0.16500E-01
  0.17047E+01  0.10124E-01  0.33500E-01
  0.17047E+01  0.10124E-01  0.46528E-01
  0.16612E+01  0.11663E-01  0.34716E-02
  0.16612E+01  0.11663E-01  0.16500E-01
  0.16612E+01  0.11663E-01  0.33500E-01
  0.16612E+01  0.11663E-01  0.46528E-01
  0.16612E+01  0.11197E-01  0.34716E-02
  0.16612E+01  0.11197E-01  0.16500E-01
  0.16612E+01  0.11197E-01  0.33500E-01
  0.16612E+01  0.11197E-01  0.46528E-01
  0.16612E+01  0.10590E-01  0.34716E-02
  0.16612E+01  0.10590E-01  0.16500E-01
  0.16612E+01  0.10590E-01  0.33500E-01
  0.16612E+01  0.10590E-01  0.46528E-01
  0.16612E+01  0.10124E-01  0.34716E-02
  0.16612E+01  0.10124E-01  0.16500E-01
  0.16612E+01  0.10124E-01  0.33500E-01
  0.16612E+01  0.10124E-01  0.46528E-01
  0.18049E+01  0.11663E-01  0.53472E-01
  0.18049E+01  0.11663E-01  0.66500E-01
  0.18049E+01  0.11663E-01  0.83500E-01
  0.18049E+01  0.11663E-01  0.96528E-01
  0.18049E+01  0.11197E-01  0.53472E-01
  0.18049E+01  0.11197E-01  0.66500E-01
  0.18049E+01  0.11197E-01  0.83500E-01
  0.18049E+01  0.11197E-01  0.96528E-01
  0.18049E+01  0.10590E-01  0.53472E-01
  0.18049E+01  0.10590E-01  0.66500E-01
  0.18049E+01  0.10590E-01  0.83500E-01
  0.18049E+01  0.10590E-01  0.96528E-01
  0.18049E+01  0.10124E-01  0.53472E-01
  0.18049E+01  0.10124E-01  0.66500E-01
  0.18049E+01  0.10124E-01  0.83500E-01
  0.18049E+01  0.10124E-01  0.96528E-01
  0.17614E+01  0.11663E-01  0.53472E-01
  0.17614E+01  0.11663E-01  0.66500E-01
  0.17614E+01  0.11663E-01  0.83500E-01
  0.17614E+01  0.11663E-01  0.96528E-01
  0.17614E+01  0.11197E-01  0.53472E-01
  0.17614E+01  0.11197E-01  0.66500E-01
  0.17614E+01  0.11197E-01  0.83500E-01
  0.17614E+01  0.11197E-01  0.96528E-01
  0.17614E+01  0.10590E-01  0.53472E-01
  0.17614E+01  0.10590E-01  0.66500E-01
  0.17614E+01  0.10590E-01  0.83500E-01
  0.17614E+01  0.10590E-01  0.96528E-01
  0.17614E+01  0.10124E-01  0.53472E-01
  0.17614E+01  0.10124E-01  0.66500E-01
  0.17614E+01  0.10124E-01  0.83500E-01
  0.17614E+01  0.10124E-01  0.96528E-01
  0.17047E+01  0.11663E-01  0.53472E-01
  0.17047E+01  0.11663E-01  0.66500E-01
  0.17047E+01  0.11663E-01  0.83500E-01
  0.17047E+01  0.11663E-01  0.96528E-01
  0.17047E+01  0.11197E-01  0.53472E-01
  0.17047E+01  0.11197E-01  0.66500E-01
  0.17047E+01  0.11197E-01  0.83500E-01
  0.17047E+01  0.11197E-01  0.96528E-01
  0.17047E+01  0.10590E-01  0.53472E-01
  0.17047E+01  0.10590E-01  0.66500E-01
  0.17047E+01  0.10590E-01  0.83500E-01
  0.17047E+01  0.10590E-01  0.96528E-01
  0.17047E+01  0.10124E-01  0.53472E-01
  0.17047E+01  0.10124E-01  0.66500E-01
  0.17047E+01  0.10124E-01  0.83500E-01
  0.17047E+01  0.10124E-01  0.96528E-01
  0.16612E+01  0.11663E-01  0.53472E-01
  0.16612E+01  0.11663E-01  0.66500E-01
  0.16612E+01  0.11663E-01  0.83500E-01
  0.16612E+01  0.11663E-01  0.96528E-01
  0.16612E+01  0.11197E-01  0.53472E-01
  0.16612E+01  0.11197E-01  0.66500E-01
  0.16612E+01  0.11197E-01  0.83500E-01
  0.16612E+01  0.11197E-01  0.96528E-01
  0.16612E+01  0.10590E-01  0.53472E-01
  0.16612E+01  0.10590E-01  0.66500E-01
  0.16612E+01  0.10590E-01  0.83500E-01
  0.16612E+01  0.10590E-01  0.96528E-01
  0.16612E+01  0.10124E-01  0.53472E-01
  0.16612E+01  0.10124E-01  0.66500E-01
  0.16612E+01  0.10124E-01  0.83500E-01
  0.16612E+01  0.10124E-01  0.96528E-01
  0.18049E+01  0.12406E-01  0.34716E-02
  0.18049E+01  0.12406E-01  0.16500E-01
  0.18049E+01  0.12406E-01  0.33500E-01
  0.18049E+01  0.12406E-01  0.46528E-01
  0.18049E+01  0.11917E-01  0.34716E-02
  0.18049E+01  0.11917E-01  0.16500E-01
  0.18049E+01  0.11917E-01  0.33500E-01
  0.18049E+01  0.11917E-01  0.46528E-01
  0.17614E+01  0.12406E-01  0.34716E-02
  0.17614E+01  0.12406E-01  0.16500E-01
  0.17614E+01  0.12406E-01  0.33500E-01
  0.17614E+01  0.12406E-01  0.46528E-01
  0.17614E+01  0.11917E-01  0.34716E-02
  0.17614E+01  0.11917E-01  0.16500E-01
  0.17614E+01  0.11917E-01  0.33500E-01
  0.17614E+01  0.11917E-01  0.46528E-01
  0.17047E+01  0.12406E-01  0.34716E-02
  0.17047E+01  0.12406E-01  0.16500E-01
  0.17047E+01  0.12406E-01  0.33500E-01
  0.17047E+01  0.12406E-01  0.46528E-01
  0.17047E+01  0.11917E-01  0.34716E-02
  0.17047E+01  0.11917E-01  0.16500E-01
  0.17047E+01  0.11917E-01  0.33500E-01
  0.17047E+01  0.11917E-01  0.46528E-01
  0.16612E+01  0.12406E-01  0.34716E-02
  0.16612E+01  0.12406E-01  0.16500E-01
  0.16612E+01  0.12406E-01  0.33500E-01
  0.16612E+01  0.12406E-01  0.46528E-01
  0.16612E+01  0.11917E-01  0.34716E-02
  0.16612E+01  0.11917E-01  0.16500E-01
  0.16612E+01  0.11917E-01  0.33500E-01
  0.16612E+01  0.11917E-01  0.46528E-01
  0.18049E+01  0.12406E-01  0.53472E-01
  0.18049E+01  0.12406E-01  0.66500E-01
  0.18049E+01  0.12406E-01  0.83500E-01
  0.18049E+01  0.12406E-01  0.96528E-01
  0.18049E+01  0.11917E-01  0.53472E-01
  0.18049E+01  0.11917E-01  0.66500E-01
  0.18049E+01  0.11917E-01  0.83500E-01
  0.18049E+01  0.11917E-01  0.96528E-01
  0.17614E+01  0.12406E-01  0.53472E-01
  0.17614E+01  0.12406E-01  0.66500E-01
  0.17614E+01  0.12406E-01  0.83500E-01
  0.17614E+01  0.12406E-01  0.96528E-01
  0.17614E+01  0.11917E-01  0.53472E-01
  0.17614E+01  0.11917E-01  0.66500E-01
  0.17614E+01  0.11917E-01  0.83500E-01
  0.17614E+01  0.11917E-01  0.96528E-01
  0.17047E+01  0.12406E-01  0.53472E-01
  0.17047E+01  0.12406E-01  0.66500E-01
  0.17047E+01  0.12406E-01  0.83500E-01
  0.17047E+01  0.12406E-01  0.96528E-01
  0.17047E+01  0.11917E-01  0.53472E-01
  0.17047E+01  0.11917E-01  0.66500E-01
  0.17047E+01  0.11917E-01  0.83500E-01
  0.17047E+01  0.11917E-01  0.96528E-01
  0.16612E+01  0.12406E-01  0.53472E-01
  0.16612E+01  0.12406E-01  0.66500E-01
  0.16612E+01  0.12406E-01  0.83500E-01
  0.16612E+01  0.12406E-01  0.96528E-01
  0.16612E+01  0.11917E-01  0.53472E-01
  0.16612E+01  0.11917E-01  0.66500E-01
  0.16612E+01  0.11917E-01  0.83500E-01
  0.16612E+01  0.11917E-01  0.96528E-01
  0.16391E+01  0.11663E-01  0.34716E-02
  0.16391E+01  0.11663E-01  0.16500E-01
  0.16391E+01  0.11663E-01  0.33500E-01
  0.16391E+01  0.11663E-01  0.46528E-01
  0.16391E+01  0.11197E-01  0.34716E-02
  0.16391E+01  0.11197E-01  0.16500E-01
  0.16391E+01  0.11197E-01  0.33500E-01
  0.16391E+01  0.11197E-01  0.46528E-01
  0.16391E+01  0.10590E-01  0.34716E-02
  0.16391E+01  0.10590E-01  0.16500E-01
  0.16391E+01  0.10590E-01  0.33500E-01
  0.16391E+01  0.10590E-01  0.46528E-01
  0.16391E+01  0.10124E-01  0.34716E-02
  0.16391E+01  0.10124E-01  0.16500E-01
  0.16391E+01  0.10124E-01  0.33500E-01
  0.16391E+01  0.10124E-01  0.46528E-01
  0.15996E+01  0.11663E-01  0.34716E-02
  0.15996E+01  0.11663E-01  0.16500E-01
  0.15996E+01  0.11663E-01  0.33500E-01
  0.15996E+01  0.11663E-01  0.46528E-01
  0.15996E+01  0.11197E-01  0.34716E-02
  0.15996E+01  0.11197E-01  0.16500E-01
  0.15996E+01  0.11197E-01  0.33500E-01
  0.15996E+01  0.11197E-01  0.46528E-01
  0.15996E+01  0.10590E-01  0.34716E-02
  0.15996E+01  0.10590E-01  0.16500E-01
  0.15996E+01  0.10590E-01  0.33500E-01
  0.15996E+01  0.10590E-01  0.46528E-01
  0.15996E+01  0.10124E-01  0.34716E-02
  0.15996E+01  0.10124E-01  0.16500E-01
  0.15996E+01  0.10124E-01  0.33500E-01
  0.15996E+01  0.10124E-01  0.46528E-01
  0.15480E+01  0.11663E-01  0.34716E-02
  0.15480E+01  0.11663E-01  0.16500E-01
  0.15480E+01  0.11663E-01  0.33500E-01
  0.15480E+01  0.11663E-01  0.46528E-01
  0.15480E+01  0.11197E-01  0.34716E-02
  0.15480E+01  0.11197E-01  0.16500E-01
  0.15480E+01  0.11197E-01  0.33500E-01
  0.15480E+01  0.11197E-01  0.46528E-01
  0.15480E+01  0.10590E-01  0.34716E-02
  0.15480E+01  0.10590E-01  0.16500E-01
  0.15480E+01  0.10590E-01  0.33500E-01
  0.15480E+01  0.10590E-01  0.46528E-01
  0.15480E+01  0.10124E-01  0.34716E-02
  0.15480E+01  0.10124E-01  0.16500E-01
  0.15480E+01  0.10124E-01  0.33500E-01
  0.15480E+01  0.10124E-01  0.46528E-01
  0.15085E+01  0.11663E-01  0.34716E-02
  0.15085E+01  0.11663E-01  0.16500E-01
  0.15085E+01  0.11663E-01  0.33500E-01
  0.15085E+01  0.11663E-01  0.46528E-01
  0.15085E+01  0.11197E-01  0.34716E-02
  0.15085E+01  0.11197E-01  0.16500E-01
  0.15085E+01  0.11197E-01  0.33500E-01
  0.15085E+01  0.11197E-01  0.46528E-01
  0.15085E+01  0.10590E-01  0.34716E-02
  0.15085E+01  0.10590E-01  0.16500E-01
  0.15085E+01  0.10590E-01  0.33500E-01
  0.15085E+01  0.10590E-01  0.46528E-01
  0.15085E+01  0.10124E-01  0.34716E-02
  0.15085E+01  0.10124E-01  0.16500E-01
  0.15085E+01  0.10124E-01  0.33500E-01
  0.15085E+01  0.10124E-01  0.46528E-01
  0.16391E+01  0.11663E-01  0.53472E-01
  0.16391E+01  0.11663E-01  0.66500E-01
  0.16391E+01  0.11663E-01  0.83500E-01
  0.16391E+01  0.11663E-01  0.96528E-01
  0.16391E+01  0.11197E-01  0.53472E-01
  0.16391E+01  0.11197E-01  0.66500E-01
  0.16391E+01  0.11197E-01  0.83500E-01
  0.16391E+01  0.11197E-01  0.96528E-01
  0.16391E+01  0.10590E-01  0.53472E-01
  0.16391E+01  0.10590E-01  0.66500E-01
  0.16391E+01  0.10590E-01  0.83500E-01
  0.16391E+01  0.10590E-01  0.96528E-01
  0.16391E+01  0.10124E-01  0.53472E-01
  0.16391E+01  0.10124E-01  0.66500E-01
  0.16391E+01  0.10124E-01  0.83500E-01
  0.16391E+01  0.10124E-01  0.96528E-01
  0.15996E+01  0.11663E-01  0.53472E-01
  0.15996E+01  0.11663E-01  0.66500E-01
  0.15996E+01  0.11663E-01  0.83500E-01
  0.15996E+01  0.11663E-01  0.96528E-01
  0.15996E+01  0.11197E-01  0.53472E-01
  0.15996E+01  0.11197E-01  0.66500E-01
  0.15996E+01  0.11197E-01  0.83500E-01
  0.15996E+01  0.11197E-01  0.96528E-01
  0.15996E+01  0.10590E-01  0.53472E-01
  0.15996E+01  0.10590E-01  0.66500E-01
  0.15996E+01  0.10590E-01  0.83500E-01
  0.15996E+01  0.10590E-01  0.96528E-01
  0.15996E+01  0.10124E-01  0.53472E-01
  0.15996E+01  0.10124E-01  0.66500E-01
  0.15996E+01  0.10124E-01  0.83500E-01
  0.15996E+01  0.10124E-01  0.96528E-01
  0.15480E+01  0.11663E-01  0.53472E-01
  0.15480E+01  0.11663E-01  0.66500E-01
  0.15480E+01  0.11663E-01  0.83500E-01
  0.15480E+01  0.11663E-01  0.96528E-01
  0.15480E+01  0.11197E-01  0.53472E-01
  0.15480E+01  0.11197E-01  0.66500E-01
  0.15480E+01  0.11197E-01  0.83500E-01
  0.15480E+01  0.11197E-01  0.96528E-01
  0.15480E+01  0.10590E-01  0.53472E-01
  0.15480E+01  0.10590E-01  0.66500E-01
  0.15480E+01  0.10590E-01  0.83500E-01
  0.15480E+01  0.10590E-01  0.96528E-01
  0.15480E+01  0.10124E-01  0.53472E-01
  0.15480E+01  0.10124E-01  0.66500E-01
  0.15480E+01  0.10124E-01  0.83500E-01
  0.15480E+01  0.10124E-01  0.96528E-01
  0.15085E+01  0.11663E-01  0.53472E-01
  0.15085E+01  0.11663E-01  0.66500E-01
  0.15085E+01  0.11663E-01  0.83500E-01
  0.15085E+01  0.11663E-01  0.96528E-01
  0.15085E+01  0.11197E-01  0.53472E-01
  0.15085E+01  0.11197E-01  0.66500E-01
  0.15085E+01  0.11197E-01  0.83500E-01
  0.15085E+01  0.11197E-01  0.96528E-01
  0.15085E+01  0.10590E-01  0.53472E-01
  0.15085E+01  0.10590E-01  0.66500E-01
  0.15085E+01  0.10590E-01  0.83500E-01
  0.15085E+01  0.10590E-01  0.96528E-01
  0.15085E+01  0.10124E-01  0.53472E-01
  0.15085E+01  0.10124E-01  0.66500E-01
  0.15085E+01  0.10124E-01  0.83500E-01
  0.15085E+01  0.10124E-01  0.96528E-01
  0.16391E+01  0.12406E-01  0.34716E-02
  0.16391E+01  0.12406E-01  0.16500E-01
  0.16391E+01  0.12406E-01  0.33500E-01
  0.16391E+01  0.12406E-01  0.46528E-01
  0.16391E+01  0.11917E-01  0.34716E-02
  0.16391E+01  0.11917E-01  0.16500E-01
  0.16391E+01  0.11917E-01  0.33500E-01
  0.16391E+01  0.11917E-01  0.46528E-01
  0.15996E+01  0.12406E-01  0.34716E-02
  0.15996E+01  0.12406E-01  0.16500E-01
  0.15996E+01  0.12406E-01  0.33500E-01
  0.15996E+01  0.12406E-01  0.46528E-01
  0.15996E+01  0.11917E-01  0.34716E-02
  0.15996E+01  0.11917E-01  0.16500E-01
  0.15996E+01  0.11917E-01  0.33500E-01
  0.15996E+01  0.11917E-01  0.46528E-01
  0.15480E+01  0.12406E-01  0.34716E-02
  0.15480E+01  0.12406E-01  0.16500E-01
  0.15480E+01  0.12406E-01  0.33500E-01
  0.15480E+01  0.12406E-01  0.46528E-01
  0.15480E+01  0.11917E-01  0.34716E-02
  0.15480E+01  0.11917E-01  0.16500E-01
  0.15480E+01  0.11917E-01  0.33500E-01
  0.15480E+01  0.11917E-01  0.46528E-01
  0.15085E+01  0.12406E-01  0.34716E-02
  0.15085E+01  0.12406E-01  0.16500E-01
  0.15085E+01  0.12406E-01  0.33500E-01
  0.15085E+01  0.12406E-01  0.46528E-01
  0.15085E+01  0.11917E-01  0.34716E-02
  0.15085E+01  0.11917E-01  0.16500E-01
  0.15085E+01  0.11917E-01  0.33500E-01
  0.15085E+01  0.11917E-01  0.46528E-01
  0.16391E+01  0.12406E-01  0.53472E-01
  0.16391E+01  0.12406E-01  0.66500E-01
  0.16391E+01  0.12406E-01  0.83500E-01
  0.16391E+01  0.12406E-01  0.96528E-01
  0.16391E+01  0.11917E-01  0.53472E-01
  0.16391E+01  0.11917E-01  0.66500E-01
  0.16391E+01  0.11917E-01  0.83500E-01
  0.16391E+01  0.11917E-01  0.96528E-01
  0.15996E+01  0.12406E-01  0.53472E-01
  0.15996E+01  0.12406E-01  0.66500E-01
  0.15996E+01  0.12406E-01  0.83500E-01
  0.15996E+01  0.12406E-01  0.96528E-01
  0.15996E+01  0.11917E-01  0.53472E-01
  0.15996E+01  0.11917E-01  0.66500E-01
  0.15996E+01  0.11917E-01  0.83500E-01
  0.15996E+01  0.11917E-01  0.96528E-01
  0.15480E+01  0.12406E-01  0.53472E-01
  0.15480E+01  0.12406E-01  0.66500E-01
  0.15480E+01  0.12406E-01  0.83500E-01
  0.15480E+01  0.12406E-01  0.96528E-01
  0.15480E+01  0.11917E-01  0.53472E-01
  0.15480E+01  0.11917E-01  0.66500E-01
  0.15480E+01  0.11917E-01  0.83500E-01
  0.15480E+01  0.11917E-01  0.96528E-01
  0.15085E+01  0.12406E-01  0.53472E-01
  0.15085E+01  0.12406E-01  0.66500E-01
  0.15085E+01  0.12406E-01  0.83500E-01
  0.15085E+01  0.12406E-01  0.96528E-01
  0.15085E+01  0.11917E-01  0.53472E-01
  0.15085E+01  0.11917E-01  0.66500E-01
  0.15085E+01  0.11917E-01  0.83500E-01
  0.15085E+01  0.11917E-01  0.96528E-01
  0.14884E+01  0.11663E-01  0.34716E-02
  0.14884E+01  0.11663E-01  0.16500E-01
  0.14884E+01  0.11663E-01  0.33500E-01
  0.14884E+01  0.11663E-01  0.46528E-01
  0.14884E+01  0.11197E-01  0.34716E-02
  0.14884E+01  0.11197E-01  0.16500E-01
  0.14884E+01  0.11197E-01  0.33500E-01
  0.14884E+01  0.11197E-01  0.46528E-01
  0.14884E+01  0.10590E-01  0.34716E-02
  0.14884E+01  0.10590E-01  0.16500E-01
  0.14884E+01  0.10590E-01  0.33500E-01
  0.14884E+01  0.10590E-01  0.46528E-01
  0.14884E+01  0.10124E-01  0.34716E-02
  0.14884E+01  0.10124E-01  0.16500E-01
  0.14884E+01  0.10124E-01  0.33500E-01
  0.14884E+01  0.10124E-01  0.46528E-01
  0.14524E+01  0.11663E-01  0.34716E-02
  0.14524E+01  0.11663E-01  0.16500E-01
  0.14524E+01  0.11663E-01  0.33500E-01
  0.14524E+01  0.11663E-01  0.46528E-01
  0.14524E+01  0.11197E-01  0.34716E-02
  0.14524E+01  0.11197E-01  0.16500E-01
  0.14524E+01  0.11197E-01  0.33500E-01
  0.14524E+01  0.11197E-01  0.46528E-01
  0.14524E+01  0.10590E-01  0.34716E-02
  0.14524E+01  0.10590E-01  0.16500E-01
  0.14524E+01  0.10590E-01  0.33500E-01
  0.14524E+01  0.10590E-01  0.46528E-01
  0.14524E+01  0.10124E-01  0.34716E-02
  0.14524E+01  0.10124E-01  0.16500E-01
  0.14524E+01  0.10124E-01  0.33500E-01
  0.14524E+01  0.10124E-01  0.46528E-01
  0.14055E+01  0.11663E-01  0.34716E-02
  0.14055E+01  0.11663E-01  0.16500E-01
  0.14055E+01  0.11663E-01  0.33500E-01
  0.14055E+01  0.11663E-01  0.46528E-01
  0.14055E+01  0.11197E-01  0.34716E-02
  0.14055E+01  0.11197E-01  0.16500E-01
  0.14055E+01  0.11197E-01  0.33500E-01
  0.14055E+01  0.11197E-01  0.46528E-01
  0.14055E+01  0.10590E-01  0.34716E-02
  0.14055E+01  0.10590E-01  0.16500E-01
  0.14055E+01  0.10590E-01  0.33500E-01
  0.14055E+01  0.10590E-01  0.46528E-01
  0.14055E+01  0.10124E-01  0.34716E-02
  0.14055E+01  0.10124E-01  0.16500E-01
  0.14055E+01  0.10124E-01  0.33500E-01
  0.14055E+01  0.10124E-01  0.46528E-01
  0.13696E+01  0.11663E-01  0.34716E-02
  0.13696E+01  0.11663E-01  0.16500E-01
  0.13696E+01  0.11663E-01  0.33500E-01
  0.13696E+01  0.11663E-01  0.46528E-01
  0.13696E+01  0.11197E-01  0.34716E-02
  0.13696E+01  0.11197E-01  0.16500E-01
  0.13696E+01  0.11197E-01  0.33500E-01
  0.13696E+01  0.11197E-01  0.46528E-01
  0.13696E+01  0.10590E-01  0.34716E-02
  0.13696E+01  0.10590E-01  0.16500E-01
  0.13696E+01  0.10590E-01  0.33500E-01
  0.13696E+01  0.10590E-01  0.46528E-01
  0.13696E+01  0.10124E-01  0.34716E-02
  0.13696E+01  0.10124E-01  0.16500E-01
  0.13696E+01  0.10124E-01  0.33500E-01
  0.13696E+01  0.10124E-01  0.46528E-01
  0.14884E+01  0.11663E-01  0.53472E-01
  0.14884E+01  0.11663E-01  0.66500E-01
  0.14884E+01  0.11663E-01  0.83500E-01
  0.14884E+01  0.11663E-01  0.96528E-01
  0.14884E+01  0.11197E-01  0.53472E-01
  0.14884E+01  0.11197E-01  0.66500E-01
  0.14884E+01  0.11197E-01  0.83500E-01
  0.14884E+01  0.11197E-01  0.96528E-01
  0.14884E+01  0.10590E-01  0.53472E-01
  0.14884E+01  0.10590E-01  0.66500E-01
  0.14884E+01  0.10590E-01  0.83500E-01
  0.14884E+01  0.10590E-01  0.96528E-01
  0.14884E+01  0.10124E-01  0.53472E-01
  0.14884E+01  0.10124E-01  0.66500E-01
  0.14884E+01  0.10124E-01  0.83500E-01
  0.14884E+01  0.10124E-01  0.96528E-01
  0.14524E+01  0.11663E-01  0.53472E-01
  0.14524E+01  0.11663E-01  0.66500E-01
  0.14524E+01  0.11663E-01  0.83500E-01
  0.14524E+01  0.11663E-01  0.96528E-01
  0.14524E+01  0.11197E-01  0.53472E-01
  0.14524E+01  0.11197E-01  0.66500E-01
  0.14524E+01  0.11197E-01  0.83500E-01
  0.14524E+01  0.11197E-01  0.96528E-01
  0.14524E+01  0.10590E-01  0.53472E-01
  0.14524E+01  0.10590E-01  0.66500E-01
  0.14524E+01  0.10590E-01  0.83500E-01
  0.14524E+01  0.10590E-01  0.96528E-01
  0.14524E+01  0.10124E-01  0.53472E-01
  0.14524E+01  0.10124E-01  0.66500E-01
  0.14524E+01  0.10124E-01  0.83500E-01
  0.14524E+01  0.10124E-01  0.96528E-01
  0.14055E+01  0.11663E-01  0.53472E-01
  0.14055E+01  0.11663E-01  0.66500E-01
  0.14055E+01  0.11663E-01  0.83500E-01
  0.14055E+01  0.11663E-01  0.96528E-01
  0.14055E+01  0.11197E-01  0.53472E-01
  0.14055E+01  0.11197E-01  0.66500E-01
  0.14055E+01  0.11197E-01  0.83500E-01
  0.14055E+01  0.11197E-01  0.96528E-01
  0.14055E+01  0.10590E-01  0.53472E-01
  0.14055E+01  0.10590E-01  0.66500E-01
  0.14055E+01  0.10590E-01  0.83500E-01
  0.14055E+01  0.10590E-01  0.96528E-01
  0.14055E+01  0.10124E-01  0.53472E-01
  0.14055E+01  0.10124E-01  0.66500E-01
  0.14055E+01  0.10124E-01  0.83500E-01
  0.14055E+01  0.10124E-01  0.96528E-01
  0.13696E+01  0.11663E-01  0.53472E-01
  0.13696E+01  0.11663E-01  0.66500E-01
  0.13696E+01  0.11663E-01  0.83500E-01
  0.13696E+01  0.11663E-01  0.96528E-01
  0.13696E+01  0.11197E-01  0.53472E-01
  0.13696E+01  0.11197E-01  0.66500E-01
  0.13696E+01  0.11197E-01  0.83500E-01
  0.13696E+01  0.11197E-01  0.96528E-01
  0.13696E+01  0.10590E-01  0.53472E-01
  0.13696E+01  0.10590E-01  0.66500E-01
  0.13696E+01  0.10590E-01  0.83500E-01
  0.13696E+01  0.10590E-01  0.96528E-01
  0.13696E+01  0.10124E-01  0.53472E-01
  0.13696E+01  0.10124E-01  0.66500E-01
  0.13696E+01  0.10124E-01  0.83500E-01
  0.13696E+01  0.10124E-01  0.96528E-01
  0.14884E+01  0.12406E-01  0.34716E-02
  0.14884E+01  0.12406E-01  0.16500E-01
  0.14884E+01  0.12406E-01  0.33500E-01
  0.14884E+01  0.12406E-01  0.46528E-01
  0.14884E+01  0.11917E-01  0.34716E-02
  0.14884E+01  0.11917E-01  0.16500E-01
  0.14884E+01  0.11917E-01  0.33500E-01
  0.14884E+01  0.11917E-01  0.46528E-01
  0.14524E+01  0.12406E-01  0.34716E-02
  0.14524E+01  0.12406E-01  0.16500E-01
  0.14524E+01  0.12406E-01  0.33500E-01
  0.14524E+01  0.12406E-01  0.46528E-01
  0.14524E+01  0.11917E-01  0.34716E-02
  0.14524E+01  0.11917E-01  0.16500E-01
  0.14524E+01  0.11917E-01  0.33500E-01
  0.14524E+01  0.11917E-01  0.46528E-01
  0.14055E+01  0.12406E-01  0.34716E-02
  0.14055E+01  0.12406E-01  0.16500E-01
  0.14055E+01  0.12406E-01  0.33500E-01
  0.14055E+01  0.12406E-01  0.46528E-01
  0.14055E+01  0.11917E-01  0.34716E-02
  0.14055E+01  0.11917E-01  0.16500E-01
  0.14055E+01  0.11917E-01  0.33500E-01
  0.14055E+01  0.11917E-01  0.46528E-01
  0.13696E+01  0.12406E-01  0.34716E-02
  0.13696E+01  0.12406E-01  0.16500E-01
  0.13696E+01  0.12406E-01  0.33500E-01
  0.13696E+01  0.12406E-01  0.46528E-01
  0.13696E+01  0.11917E-01  0.34716E-02
  0.13696E+01  0.11917E-01  0.16500E-01
  0.13696E+01  0.11917E-01  0.33500E-01
  0.13696E+01  0.11917E-01  0.46528E-01
  0.14884E+01  0.12406E-01  0.53472E-01
  0.14884E+01  0.12406E-01  0.66500E-01
  0.14884E+01  0.12406E-01  0.83500E-01
  0.14884E+01  0.12406E-01  0.96528E-01
  0.14884E+01  0.11917E-01  0.53472E-01
  0.14884E+01  0.11917E-01  0.66500E-01
  0.14884E+01  0.11917E-01  0.83500E-01
  0.14884E+01  0.11917E-01  0.96528E-01
  0.14524E+01  0.12406E-01  0.53472E-01
  0.14524E+01  0.12406E-01  0.66500E-01
  0.14524E+01  0.12406E-01  0.83500E-01
  0.14524E+01  0.12406E-01  0.96528E-01