TITLE = "Points"
VARIABLES = "x","y","z"
ZONE I=784,J=2,K=1, DATAPACKING=POINT
  0.19873E+01  0.10124E-01  0.34716E-02
  0.19873E+01  0.10124E-01  0.16500E-01
  0.19873E+01  0.10124E-01  0.33500E-01
  0.19873E+01  0.10124E-01  0.46528E-01
  0.19394E+01  0.10124E-01  0.34716E-02
  0.19394E+01  0.10124E-01  0.16500E-01
  0.19394E+01  0.10124E-01  0.33500E-01
  0.19394E+01  0.10124E-01  0.46528E-01
  0.18770E+01  0.10124E-01  0.34716E-02
  0.18770E+01  0.10124E-01  0.16500E-01
  0.18770E+01  0.10124E-01  0.33500E-01
  0.18770E+01  0.10124E-01  0.46528E-01
  0.18292E+01  0.10124E-01  0.34716E-02
  0.18292E+01  0.10124E-01  0.16500E-01
  0.18292E+01  0.10124E-01  0.33500E-01
  0.18292E+01  0.10124E-01  0.46528E-01
  0.19873E+01  0.10124E-01  0.53472E-01
  0.19873E+01  0.10124E-01  0.66500E-01
  0.19873E+01  0.10124E-01  0.83500E-01
  0.19873E+01  0.10124E-01  0.96528E-01
  0.19394E+01  0.10124E-01  0.53472E-01
  0.19394E+01  0.10124E-01  0.66500E-01
  0.19394E+01  0.10124E-01  0.83500E-01
  0.19394E+01  0.10124E-01  0.96528E-01
  0.18770E+01  0.10124E-01  0.53472E-01
  0.18770E+01  0.10124E-01  0.66500E-01
  0.18770E+01  0.10124E-01  0.83500E-01
  0.18770E+01  0.10124E-01  0.96528E-01
  0.18292E+01  0.10124E-01  0.53472E-01
  0.18292E+01  0.10124E-01  0.66500E-01
  0.18292E+01  0.10124E-01  0.83500E-01
  0.18292E+01  0.10124E-01  0.96528E-01
  0.18049E+01  0.10124E-01  0.34716E-02
  0.18049E+01  0.10124E-01  0.16500E-01
  0.18049E+01  0.10124E-01  0.33500E-01
  0.18049E+01  0.10124E-01  0.46528E-01
  0.17614E+01  0.10124E-01  0.34716E-02
  0.17614E+01  0.10124E-01  0.16500E-01
  0.17614E+01  0.10124E-01  0.33500E-01
  0.17614E+01  0.10124E-01  0.46528E-01
  0.17047E+01  0.10124E-01  0.34716E-02
  0.17047E+01  0.10124E-01  0.16500E-01
  0.17047E+01  0.10124E-01  0.33500E-01
  0.17047E+01  0.10124E-01  0.46528E-01
  0.16612E+01  0.10124E-01  0.34716E-02
  0.16612E+01  0.10124E-01  0.16500E-01
  0.16612E+01  0.10124E-01  0.33500E-01
  0.16612E+01  0.10124E-01  0.46528E-01
  0.18049E+01  0.10124E-01  0.53472E-01
  0.18049E+01  0.10124E-01  0.66500E-01
  0.18049E+01  0.10124E-01  0.83500E-01
  0.18049E+01  0.10124E-01  0.96528E-01
  0.17614E+01  0.10124E-01  0.53472E-01
  0.17614E+01  0.10124E-01  0.66500E-01
  0.17614E+01  0.10124E-01  0.83500E-01
  0.17614E+01  0.10124E-01  0.96528E-01
  0.17047E+01  0.10124E-01  0.53472E-01
  0.17047E+01  0.10124E-01  0.66500E-01
  0.17047E+01  0.10124E-01  0.83500E-01
  0.17047E+01  0.10124E-01  0.96528E-01
  0.16612E+01  0.10124E-01  0.53472E-01
  0.16612E+01  0.10124E-01  0.66500E-01
  0.16612E+01  0.10124E-01  0.83500E-01
  0.16612E+01  0.10124E-01  0.96528E-01
  0.16391E+01  0.10124E-01  0.34716E-02
  0.16391E+01  0.10124E-01  0.16500E-01
  0.16391E+01  0.10124E-01  0.33500E-01
  0.16391E+01  0.10124E-01  0.46528E-01
  0.15996E+01  0.10124E-01  0.34716E-02
  0.15996E+01  0.10124E-01  0.16500E-01
  0.15996E+01  0.10124E-01  0.33500E-01
  0.15996E+01  0.10124E-01  0.46528E-01
  0.15480E+01  0.10124E-01  0.34716E-02
  0.15480E+01  0.10124E-01  0.16500E-01
  0.15480E+01  0.10124E-01  0.33500E-01
  0.15480E+01  0.10124E-01  0.46528E-01
  0.15085E+01  0.10124E-01  0.34716E-02
  0.15085E+01  0.10124E-01  0.16500E-01
  0.15085E+01  0.10124E-01  0.33500E-01
  0.15085E+01  0.10124E-01  0.46528E-01
  0.16391E+01  0.10124E-01  0.53472E-01
  0.16391E+01  0.10124E-01  0.66500E-01
  0.16391E+01  0.10124E-01  0.83500E-01
  0.16391E+01  0.10124E-01  0.96528E-01
  0.15996E+01  0.10124E-01  0.53472E-01
  0.15996E+01  0.10124E-01  0.66500E-01
  0.15996E+01  0.10124E-01  0.83500E-01
  0.15996E+01  0.10124E-01  0.96528E-01
  0.15480E+01  0.10124E-01  0.53472E-01
  0.15480E+01  0.10124E-01  0.66500E-01
  0.15480E+01  0.10124E-01  0.83500E-01
  0.15480E+01  0.10124E-01  0.96528E-01
  0.15085E+01  0.10124E-01  0.53472E-01
  0.15085E+01  0.10124E-01  0.66500E-01
  0.15085E+01  0.10124E-01  0.83500E-01
  0.15085E+01  0.10124E-01  0.96528E-01
  0.14884E+01  0.10124E-01  0.34716E-02
  0.14884E+01  0.10124E-01  0.16500E-01
  0.14884E+01  0.10124E-01  0.33500E-01
  0.14884E+01  0.10124E-01  0.46528E-01
  0.14524E+01  0.10124E-01  0.34716E-02
  0.14524E+01  0.10124E-01  0.16500E-01
  0.14524E+01  0.10124E-01  0.33500E-01
  0.14524E+01  0.10124E-01  0.46528E-01
  0.14055E+01  0.10124E-01  0.34716E-02
  0.14055E+01  0.10124E-01  0.16500E-01
  0.14055E+01  0.10124E-01  0.33500E-01
  0.14055E+01  0.10124E-01  0.46528E-01
  0.13696E+01  0.10124E-01  0.34716E-02
  0.13696E+01  0.10124E-01  0.16500E-01
  0.13696E+01  0.10124E-01  0.33500E-01
  0.13696E+01  0.10124E-01  0.46528E-01
  0.14884E+01  0.10124E-01  0.53472E-01
  0.14884E+01  0.10124E-01  0.66500E-01
  0.14884E+01  0.10124E-01  0.83500E-01
  0.14884E+01  0.10124E-01  0.96528E-01
  0.14524E+01  0.10124E-01  0.53472E-01
  0.14524E+01  0.10124E-01  0.66500E-01
  0.14524E+01  0.10124E-01  0.83500E-01
  0.14524E+01  0.10124E-01  0.96528E-01
  0.14055E+01  0.10124E-01  0.53472E-01
  0.14055E+01  0.10124E-01  0.66500E-01
  0.14055E+01  0.10124E-01  0.83500E-01
  0.14055E+01  0.10124E-01  0.96528E-01
  0.13696E+01  0.10124E-01  0.53472E-01
  0.13696E+01  0.10124E-01  0.66500E-01
  0.13696E+01  0.10124E-01  0.83500E-01
  0.13696E+01  0.10124E-01  0.96528E-01
  0.13513E+01  0.10124E-01  0.34716E-02
  0.13513E+01  0.10124E-01  0.16500E-01
  0.13513E+01  0.10124E-01  0.33500E-01
  0.13513E+01  0.10124E-01  0.46528E-01
  0.13187E+01  0.10124E-01  0.34716E-02
  0.13187E+01  0.10124E-01  0.16500E-01
  0.13187E+01  0.10124E-01  0.33500E-01
  0.13187E+01  0.10124E-01  0.46528E-01
  0.12760E+01  0.10124E-01  0.34716E-02
  0.12760E+01  0.10124E-01  0.16500E-01
  0.12760E+01  0.10124E-01  0.33500E-01
  0.12760E+01  0.10124E-01  0.46528E-01
  0.12434E+01  0.10124E-01  0.34716E-02
  0.12434E+01  0.10124E-01  0.16500E-01
  0.12434E+01  0.10124E-01  0.33500E-01
  0.12434E+01  0.10124E-01  0.46528E-01
  0.13513E+01  0.10124E-01  0.53472E-01
  0.13513E+01  0.10124E-01  0.66500E-01
  0.13513E+01  0.10124E-01  0.83500E-01
  0.13513E+01  0.10124E-01  0.96528E-01
  0.13187E+01  0.10124E-01  0.53472E-01
  0.13187E+01  0.10124E-01  0.66500E-01
  0.13187E+01  0.10124E-01  0.83500E-01
  0.13187E+01  0.10124E-01  0.96528E-01
  0.12760E+01  0.10124E-01  0.53472E-01
  0.12760E+01  0.10124E-01  0.66500E-01
  0.12760E+01  0.10124E-01  0.83500E-01
  0.12760E+01  0.10124E-01  0.96528E-01
  0.12434E+01  0.10124E-01  0.53472E-01
  0.12434E+01  0.10124E-01  0.66500E-01
  0.12434E+01  0.10124E-01  0.83500E-01
  0.12434E+01  0.10124E-01  0.96528E-01
  0.12268E+01  0.10124E-01  0.34716E-02
  0.12268E+01  0.10124E-01  0.16500E-01
  0.12268E+01  0.10124E-01  0.33500E-01
  0.12268E+01  0.10124E-01  0.46528E-01
  0.11971E+01  0.10124E-01  0.34716E-02
  0.11971E+01  0.10124E-01  0.16500E-01
  0.11971E+01  0.10124E-01  0.33500E-01
  0.11971E+01  0.10124E-01  0.46528E-01
  0.11583E+01  0.10124E-01  0.34716E-02
  0.11583E+01  0.10124E-01  0.16500E-01
  0.11583E+01  0.10124E-01  0.33500E-01
  0.11583E+01  0.10124E-01  0.46528E-01
  0.11286E+01  0.10124E-01  0.34716E-02
  0.11286E+01  0.10124E-01  0.16500E-01
  0.11286E+01  0.10124E-01  0.33500E-01
  0.11286E+01  0.10124E-01  0.46528E-01
  0.12268E+01  0.10124E-01  0.53472E-01
  0.12268E+01  0.10124E-01  0.66500E-01
  0.12268E+01  0.10124E-01  0.83500E-01
  0.12268E+01  0.10124E-01  0.96528E-01
  0.11971E+01  0.10124E-01  0.53472E-01
  0.11971E+01  0.10124E-01  0.66500E-01
  0.11971E+01  0.10124E-01  0.83500E-01
  0.11971E+01  0.10124E-01  0.96528E-01
  0.11583E+01  0.10124E-01  0.53472E-01
  0.11583E+01  0.10124E-01  0.66500E-01
  0.11583E+01  0.10124E-01  0.83500E-01
  0.11583E+01  0.10124E-01  0.96528E-01
  0.11286E+01  0.10124E-01  0.53472E-01
  0.11286E+01  0.10124E-01  0.66500E-01
  0.11286E+01  0.10124E-01  0.83500E-01
  0.11286E+01  0.10124E-01  0.96528E-01
  0.11135E+01  0.10124E-01  0.34716E-02
  0.11135E+01  0.10124E-01  0.16500E-01
  0.11135E+01  0.10124E-01  0.33500E-01
  0.11135E+01  0.10124E-01  0.46528E-01
  0.10865E+01  0.10124E-01  0.34716E-02
  0.10865E+01  0.10124E-01  0.16500E-01
  0.10865E+01  0.10124E-01  0.33500E-01
  0.10865E+01  0.10124E-01  0.46528E-01
  0.10513E+01  0.10124E-01  0.34716E-02
  0.10513E+01  0.10124E-01  0.16500E-01
  0.10513E+01  0.10124E-01  0.33500E-01
  0.10513E+01  0.10124E-01  0.46528E-01
  0.10243E+01  0.10124E-01  0.34716E-02
  0.10243E+01  0.10124E-01  0.16500E-01
  0.10243E+01  0.10124E-01  0.33500E-01
  0.10243E+01  0.10124E-01  0.46528E-01
  0.11135E+01  0.10124E-01  0.53472E-01
  0.11135E+01  0.10124E-01  0.66500E-01
  0.11135E+01  0.10124E-01  0.83500E-01
  0.11135E+01  0.10124E-01  0.96528E-01
  0.10865E+01  0.10124E-01  0.53472E-01
  0.10865E+01  0.10124E-01  0.66500E-01
  0.10865E+01  0.10124E-01  0.83500E-01
  0.10865E+01  0.10124E-01  0.96528E-01
  0.10513E+01  0.10124E-01  0.53472E-01
  0.10513E+01  0.10124E-01  0.66500E-01
  0.10513E+01  0.10124E-01  0.83500E-01
  0.10513E+01  0.10124E-01  0.96528E-01
  0.10243E+01  0.10124E-01  0.53472E-01
  0.10243E+01  0.10124E-01  0.66500E-01
  0.10243E+01  0.10124E-01  0.83500E-01
  0.10243E+01  0.10124E-01  0.96528E-01
  0.10106E+01  0.10124E-01  0.34716E-02
  0.10106E+01  0.10124E-01  0.16500E-01
  0.10106E+01  0.10124E-01  0.33500E-01
  0.10106E+01  0.10124E-01  0.46528E-01
  0.98602E+00  0.10124E-01  0.34716E-02
  0.98602E+00  0.10124E-01  0.16500E-01
  0.98602E+00  0.10124E-01  0.33500E-01
  0.98602E+00  0.10124E-01  0.46528E-01
  0.95400E+00  0.10124E-01  0.34716E-02
  0.95400E+00  0.10124E-01  0.16500E-01
  0.95400E+00  0.10124E-01  0.33500E-01
  0.95400E+00  0.10124E-01  0.46528E-01
  0.92946E+00  0.10124E-01  0.34716E-02
  0.92946E+00  0.10124E-01  0.16500E-01
  0.92946E+00  0.10124E-01  0.33500E-01
  0.92946E+00  0.10124E-01  0.46528E-01
  0.10106E+01  0.10124E-01  0.53472E-01
  0.10106E+01  0.10124E-01  0.66500E-01
  0.10106E+01  0.10124E-01  0.83500E-01
  0.10106E+01  0.10124E-01  0.96528E-01
  0.98602E+00  0.10124E-01  0.53472E-01
  0.98602E+00  0.10124E-01  0.66500E-01
  0.98602E+00  0.10124E-01  0.83500E-01
  0.98602E+00  0.10124E-01  0.96528E-01
  0.95400E+00  0.10124E-01  0.53472E-01
  0.95400E+00  0.10124E-01  0.66500E-01
  0.95400E+00  0.10124E-01  0.83500E-01
  0.95400E+00  0.10124E-01  0.96528E-01
  0.92946E+00  0.10124E-01  0.53472E-01
  0.92946E+00  0.10124E-01  0.66500E-01
  0.92946E+00  0.10124E-01  0.83500E-01
  0.92946E+00  0.10124E-01  0.96528E-01
  0.91698E+00  0.10124E-01  0.34716E-02
  0.91698E+00  0.10124E-01  0.16500E-01
  0.91698E+00  0.10124E-01  0.33500E-01
  0.91698E+00  0.10124E-01  0.46528E-01
  0.89467E+00  0.10124E-01  0.34716E-02
  0.89467E+00  0.10124E-01  0.16500E-01
  0.89467E+00  0.10124E-01  0.33500E-01
  0.89467E+00  0.10124E-01  0.46528E-01
  0.86556E+00  0.10124E-01  0.34716E-02
  0.86556E+00  0.10124E-01  0.16500E-01
  0.86556E+00  0.10124E-01  0.33500E-01
  0.86556E+00  0.10124E-01  0.46528E-01
  0.84325E+00  0.10124E-01  0.34716E-02
  0.84325E+00  0.10124E-01  0.16500E-01
  0.84325E+00  0.10124E-01  0.33500E-01
  0.84325E+00  0.10124E-01  0.46528E-01
  0.91698E+00  0.10124E-01  0.53472E-01
  0.91698E+00  0.10124E-01  0.66500E-01
  0.91698E+00  0.10124E-01  0.83500E-01
  0.91698E+00  0.10124E-01  0.96528E-01
  0.89467E+00  0.10124E-01  0.53472E-01
  0.89467E+00  0.10124E-01  0.66500E-01
  0.89467E+00  0.10124E-01  0.83500E-01
  0.89467E+00  0.10124E-01  0.96528E-01
  0.86556E+00  0.10124E-01  0.53472E-01
  0.86556E+00  0.10124E-01  0.66500E-01
  0.86556E+00  0.10124E-01  0.83500E-01
  0.86556E+00  0.10124E-01  0.96528E-01
  0.84325E+00  0.10124E-01  0.53472E-01
  0.84325E+00  0.10124E-01  0.66500E-01
  0.84325E+00  0.10124E-01  0.83500E-01
  0.84325E+00  0.10124E-01  0.96528E-01
  0.83190E+00  0.10124E-01  0.34716E-02
  0.83190E+00  0.10124E-01  0.16500E-01
  0.83190E+00  0.10124E-01  0.33500E-01
  0.83190E+00  0.10124E-01  0.46528E-01
  0.81161E+00  0.10124E-01  0.34716E-02
  0.81161E+00  0.10124E-01  0.16500E-01
  0.81161E+00  0.10124E-01  0.33500E-01
  0.81161E+00  0.10124E-01  0.46528E-01
  0.78515E+00  0.10124E-01  0.34716E-02
  0.78515E+00  0.10124E-01  0.16500E-01
  0.78515E+00  0.10124E-01  0.33500E-01
  0.78515E+00  0.10124E-01  0.46528E-01
  0.76487E+00  0.10124E-01  0.34716E-02
  0.76487E+00  0.10124E-01  0.16500E-01
  0.76487E+00  0.10124E-01  0.33500E-01
  0.76487E+00  0.10124E-01  0.46528E-01
  0.83190E+00  0.10124E-01  0.53472E-01
  0.83190E+00  0.10124E-01  0.66500E-01
  0.83190E+00  0.10124E-01  0.83500E-01
  0.83190E+00  0.10124E-01  0.96528E-01
  0.81161E+00  0.10124E-01  0.53472E-01
  0.81161E+00  0.10124E-01  0.66500E-01
  0.81161E+00  0.10124E-01  0.83500E-01
  0.81161E+00  0.10124E-01  0.96528E-01
  0.78515E+00  0.10124E-01  0.53472E-01
  0.78515E+00  0.10124E-01  0.66500E-01
  0.78515E+00  0.10124E-01  0.83500E-01
  0.78515E+00  0.10124E-01  0.96528E-01
  0.76487E+00  0.10124E-01  0.53472E-01
  0.76487E+00  0.10124E-01  0.66500E-01
  0.76487E+00  0.10124E-01  0.83500E-01
  0.76487E+00  0.10124E-01  0.96528E-01
  0.75455E+00  0.10124E-01  0.34716E-02
  0.75455E+00  0.10124E-01  0.16500E-01
  0.75455E+00  0.10124E-01  0.33500E-01
  0.75455E+00  0.10124E-01  0.46528E-01
  0.73611E+00  0.10124E-01  0.34716E-02
  0.73611E+00  0.10124E-01  0.16500E-01
  0.73611E+00  0.10124E-01  0.33500E-01
  0.73611E+00  0.10124E-01  0.46528E-01
  0.71205E+00  0.10124E-01  0.34716E-02
  0.71205E+00  0.10124E-01  0.16500E-01
  0.71205E+00  0.10124E-01  0.33500E-01
  0.71205E+00  0.10124E-01  0.46528E-01
  0.69361E+00  0.10124E-01  0.34716E-02
  0.69361E+00  0.10124E-01  0.16500E-01
  0.69361E+00  0.10124E-01  0.33500E-01
  0.69361E+00  0.10124E-01  0.46528E-01
  0.75455E+00  0.10124E-01  0.53472E-01
  0.75455E+00  0.10124E-01  0.66500E-01
  0.75455E+00  0.10124E-01  0.83500E-01
  0.75455E+00  0.10124E-01  0.96528E-01
  0.73611E+00  0.10124E-01  0.53472E-01
  0.73611E+00  0.10124E-01  0.66500E-01
  0.73611E+00  0.10124E-01  0.83500E-01
  0.73611E+00  0.10124E-01  0.96528E-01
  0.71205E+00  0.10124E-01  0.53472E-01
  0.71205E+00  0.10124E-01  0.66500E-01
  0.71205E+00  0.10124E-01  0.83500E-01
  0.71205E+00  0.10124E-01  0.96528E-01
  0.69361E+00  0.10124E-01  0.53472E-01
  0.69361E+00  0.10124E-01  0.66500E-01
  0.69361E+00  0.10124E-01  0.83500E-01
  0.69361E+00  0.10124E-01  0.96528E-01
  0.68423E+00  0.10124E-01  0.34716E-02
  0.68423E+00  0.10124E-01  0.16500E-01
  0.68423E+00  0.10124E-01  0.33500E-01
  0.68423E+00  0.10124E-01  0.46528E-01
  0.66747E+00  0.10124E-01  0.34716E-02
  0.66747E+00  0.10124E-01  0.16500E-01
  0.66747E+00  0.10124E-01  0.33500E-01
  0.66747E+00  0.10124E-01  0.46528E-01
  0.64560E+00  0.10124E-01  0.34716E-02
  0.64560E+00  0.10124E-01  0.16500E-01
  0.64560E+00  0.10124E-01  0.33500E-01
  0.64560E+00  0.10124E-01  0.46528E-01
  0.62884E+00  0.10124E-01  0.34716E-02
  0.62884E+00  0.10124E-01  0.16500E-01
  0.62884E+00  0.10124E-01  0.33500E-01
  0.62884E+00  0.10124E-01  0.46528E-01
  0.68423E+00  0.10124E-01  0.53472E-01
  0.68423E+00  0.10124E-01  0.66500E-01
  0.68423E+00  0.10124E-01  0.83500E-01
  0.68423E+00  0.10124E-01  0.96528E-01
  0.66747E+00  0.10124E-01  0.53472E-01
  0.66747E+00  0.10124E-01  0.66500E-01
  0.66747E+00  0.10124E-01  0.83500E-01
  0.66747E+00  0.10124E-01  0.96528E-01
  0.64560E+00  0.10124E-01  0.53472E-01
  0.64560E+00  0.10124E-01  0.66500E-01
  0.64560E+00  0.10124E-01  0.83500E-01
  0.64560E+00  0.10124E-01  0.96528E-01
  0.62884E+00  0.10124E-01  0.53472E-01
  0.62884E+00  0.10124E-01  0.66500E-01
  0.62884E+00  0.10124E-01  0.83500E-01
  0.62884E+00  0.10124E-01  0.96528E-01
  0.62031E+00  0.10124E-01  0.34716E-02
  0.62031E+00  0.10124E-01  0.16500E-01
  0.62031E+00  0.10124E-01  0.33500E-01
  0.62031E+00  0.10124E-01  0.46528E-01
  0.60507E+00  0.10124E-01  0.34716E-02
  0.60507E+00  0.10124E-01  0.16500E-01
  0.60507E+00  0.10124E-01  0.33500E-01
  0.60507E+00  0.10124E-01  0.46528E-01
  0.58519E+00  0.10124E-01  0.34716E-02
  0.58519E+00  0.10124E-01  0.16500E-01
  0.58519E+00  0.10124E-01  0.33500E-01
  0.58519E+00  0.10124E-01  0.46528E-01
  0.56995E+00  0.10124E-01  0.34716E-02
  0.56995E+00  0.10124E-01  0.16500E-01
  0.56995E+00  0.10124E-01  0.33500E-01
  0.56995E+00  0.10124E-01  0.46528E-01
  0.62031E+00  0.10124E-01  0.53472E-01
  0.62031E+00  0.10124E-01  0.66500E-01
  0.62031E+00  0.10124E-01  0.83500E-01
  0.62031E+00  0.10124E-01  0.96528E-01
  0.60507E+00  0.10124E-01  0.53472E-01
  0.60507E+00  0.10124E-01  0.66500E-01
  0.60507E+00  0.10124E-01  0.83500E-01
  0.60507E+00  0.10124E-01  0.96528E-01
  0.58519E+00  0.10124E-01  0.53472E-01
  0.58519E+00  0.10124E-01  0.66500E-01
  0.58519E+00  0.10124E-01  0.83500E-01
  0.58519E+00  0.10124E-01  0.96528E-01
  0.56995E+00  0.10124E-01  0.53472E-01
  0.56995E+00  0.10124E-01  0.66500E-01
  0.56995E+00  0.10124E-01  0.83500E-01
  0.56995E+00  0.10124E-01  0.96528E-01
  0.56220E+00  0.10124E-01  0.34716E-02
  0.56220E+00  0.10124E-01  0.16500E-01
  0.56220E+00  0.10124E-01  0.33500E-01
  0.56220E+00  0.10124E-01  0.46528E-01
  0.54835E+00  0.10124E-01  0.34716E-02
  0.54835E+00  0.10124E-01  0.16500E-01
  0.54835E+00  0.10124E-01  0.33500E-01
  0.54835E+00  0.10124E-01  0.46528E-01
  0.53027E+00  0.10124E-01  0.34716E-02
  0.53027E+00  0.10124E-01  0.16500E-01
  0.53027E+00  0.10124E-01  0.33500E-01
  0.53027E+00  0.10124E-01  0.46528E-01
  0.51642E+00  0.10124E-01  0.34716E-02
  0.51642E+00  0.10124E-01  0.16500E-01
  0.51642E+00  0.10124E-01  0.33500E-01
  0.51642E+00  0.10124E-01  0.46528E-01
  0.56220E+00  0.10124E-01  0.53472E-01
  0.56220E+00  0.10124E-01  0.66500E-01
  0.56220E+00  0.10124E-01  0.83500E-01
  0.56220E+00  0.10124E-01  0.96528E-01
  0.54835E+00  0.10124E-01  0.53472E-01
  0.54835E+00  0.10124E-01  0.66500E-01
  0.54835E+00  0.10124E-01  0.83500E-01
  0.54835E+00  0.10124E-01  0.96528E-01
  0.53027E+00  0.10124E-01  0.53472E-01
  0.53027E+00  0.10124E-01  0.66500E-01
  0.53027E+00  0.10124E-01  0.83500E-01
  0.53027E+00  0.10124E-01  0.96528E-01
  0.51642E+00  0.10124E-01  0.53472E-01
  0.51642E+00  0.10124E-01  0.66500E-01
  0.51642E+00  0.10124E-01  0.83500E-01
  0.51642E+00  0.10124E-01  0.96528E-01
  0.50937E+00  0.10124E-01  0.34716E-02
  0.50937E+00  0.10124E-01  0.16500E-01
  0.50937E+00  0.10124E-01  0.33500E-01
  0.50937E+00  0.10124E-01  0.46528E-01
  0.49678E+00  0.10124E-01  0.34716E-02
  0.49678E+00  0.10124E-01  0.16500E-01
  0.49678E+00  0.10124E-01  0.33500E-01
  0.49678E+00  0.10124E-01  0.46528E-01
  0.48034E+00  0.10124E-01  0.34716E-02
  0.48034E+00  0.10124E-01  0.16500E-01
  0.48034E+00  0.10124E-01  0.33500E-01
  0.48034E+00  0.10124E-01  0.46528E-01
  0.46775E+00  0.10124E-01  0.34716E-02
  0.46775E+00  0.10124E-01  0.16500E-01
  0.46775E+00  0.10124E-01  0.33500E-01
  0.46775E+00  0.10124E-01  0.46528E-01
  0.50937E+00  0.10124E-01  0.53472E-01
  0.50937E+00  0.10124E-01  0.66500E-01
  0.50937E+00  0.10124E-01  0.83500E-01
  0.50937E+00  0.10124E-01  0.96528E-01
  0.49678E+00  0.10124E-01  0.53472E-01
  0.49678E+00  0.10124E-01  0.66500E-01
  0.49678E+00  0.10124E-01  0.83500E-01
  0.49678E+00  0.10124E-01  0.96528E-01
  0.48034E+00  0.10124E-01  0.53472E-01
  0.48034E+00  0.10124E-01  0.66500E-01
  0.48034E+00  0.10124E-01  0.83500E-01
  0.48034E+00  0.10124E-01  0.96528E-01
  0.46775E+00  0.10124E-01  0.53472E-01
  0.46775E+00  0.10124E-01  0.66500E-01
  0.46775E+00  0.10124E-01  0.83500E-01
  0.46775E+00  0.10124E-01  0.96528E-01
  0.46134E+00  0.10124E-01  0.34716E-02
  0.46134E+00  0.10124E-01  0.16500E-01
  0.46134E+00  0.10124E-01  0.33500E-01
  0.46134E+00  0.10124E-01  0.46528E-01
  0.44990E+00  0.10124E-01  0.34716E-02
  0.44990E+00  0.10124E-01  0.16500E-01
  0.44990E+00  0.10124E-01  0.33500E-01
  0.44990E+00  0.10124E-01  0.46528E-01
  0.43496E+00  0.10124E-01  0.34716E-02
  0.43496E+00  0.10124E-01  0.16500E-01
  0.43496E+00  0.10124E-01  0.33500E-01
  0.43496E+00  0.10124E-01  0.46528E-01
  0.42351E+00  0.10124E-01  0.34716E-02
  0.42351E+00  0.10124E-01  0.16500E-01
  0.42351E+00  0.10124E-01  0.33500E-01
  0.42351E+00  0.10124E-01  0.46528E-01
  0.46134E+00  0.10124E-01  0.53472E-01
  0.46134E+00  0.10124E-01  0.66500E-01
  0.46134E+00  0.10124E-01  0.83500E-01
  0.46134E+00  0.10124E-01  0.96528E-01
  0.44990E+00  0.10124E-01  0.53472E-01
  0.44990E+00  0.10124E-01  0.66500E-01
  0.44990E+00  0.10124E-01  0.83500E-01
  0.44990E+00  0.10124E-01  0.96528E-01
  0.43496E+00  0.10124E-01  0.53472E-01
  0.43496E+00  0.10124E-01  0.66500E-01
  0.43496E+00  0.10124E-01  0.83500E-01
  0.43496E+00  0.10124E-01  0.96528E-01
  0.42351E+00  0.10124E-01  0.53472E-01
  0.42351E+00  0.10124E-01  0.66500E-01
  0.42351E+00  0.10124E-01  0.83500E-01
  0.42351E+00  0.10124E-01  0.96528E-01
  0.41768E+00  0.10124E-01  0.34716E-02
  0.41768E+00  0.10124E-01  0.16500E-01
  0.41768E+00  0.10124E-01  0.33500E-01
  0.41768E+00  0.10124E-01  0.46528E-01
  0.40728E+00  0.10124E-01  0.34716E-02
  0.40728E+00  0.10124E-01  0.16500E-01
  0.40728E+00  0.10124E-01  0.33500E-01
  0.40728E+00  0.10124E-01  0.46528E-01
  0.39370E+00  0.10124E-01  0.34716E-02
  0.39370E+00  0.10124E-01  0.16500E-01
  0.39370E+00  0.10124E-01  0.33500E-01
  0.39370E+00  0.10124E-01  0.46528E-01
  0.38329E+00  0.10124E-01  0.34716E-02
  0.38329E+00  0.10124E-01  0.16500E-01
  0.38329E+00  0.10124E-01  0.33500E-01
  0.38329E+00  0.10124E-01  0.46528E-01
  0.41768E+00  0.10124E-01  0.53472E-01
  0.41768E+00  0.10124E-01  0.66500E-01
  0.41768E+00  0.10124E-01  0.83500E-01
  0.41768E+00  0.10124E-01  0.96528E-01
  0.40728E+00  0.10124E-01  0.53472E-01
  0.40728E+00  0.10124E-01  0.66500E-01
  0.40728E+00  0.10124E-01  0.83500E-01
  0.40728E+00  0.10124E-01  0.96528E-01
  0.39370E+00  0.10124E-01  0.53472E-01
  0.39370E+00  0.10124E-01  0.66500E-01
  0.39370E+00  0.10124E-01  0.83500E-01
  0.39370E+00  0.10124E-01  0.96528E-01
  0.38329E+00  0.10124E-01  0.53472E-01
  0.38329E+00  0.10124E-01  0.66500E-01
  0.38329E+00  0.10124E-01  0.83500E-01
  0.38329E+00  0.10124E-01  0.96528E-01
  0.37799E+00  0.10124E-01  0.34716E-02
  0.37799E+00  0.10124E-01  0.16500E-01
  0.37799E+00  0.10124E-01  0.33500E-01
  0.37799E+00  0.10124E-01  0.46528E-01
  0.36853E+00  0.10124E-01  0.34716E-02
  0.36853E+00  0.10124E-01  0.16500E-01
  0.36853E+00  0.10124E-01  0.33500E-01
  0.36853E+00  0.10124E-01  0.46528E-01
  0.35619E+00  0.10124E-01  0.34716E-02
  0.35619E+00  0.10124E-01  0.16500E-01
  0.35619E+00  0.10124E-01  0.33500E-01
  0.35619E+00  0.10124E-01  0.46528E-01
  0.34672E+00  0.10124E-01  0.34716E-02
  0.34672E+00  0.10124E-01  0.16500E-01
  0.34672E+00  0.10124E-01  0.33500E-01
  0.34672E+00  0.10124E-01  0.46528E-01
  0.37799E+00  0.10124E-01  0.53472E-01
  0.37799E+00  0.10124E-01  0.66500E-01
  0.37799E+00  0.10124E-01  0.83500E-01
  0.37799E+00  0.10124E-01  0.96528E-01
  0.36853E+00  0.10124E-01  0.53472E-01
  0.36853E+00  0.10124E-01  0.66500E-01
  0.36853E+00  0.10124E-01  0.83500E-01
  0.36853E+00  0.10124E-01  0.96528E-01
  0.35619E+00  0.10124E-01  0.53472E-01
  0.35619E+00  0.10124E-01  0.66500E-01
  0.35619E+00  0.10124E-01  0.83500E-01
  0.35619E+00  0.10124E-01  0.96528E-01
  0.34672E+00  0.10124E-01  0.53472E-01
  0.34672E+00  0.10124E-01  0.66500E-01
  0.34672E+00  0.10124E-01  0.83500E-01
  0.34672E+00  0.10124E-01  0.96528E-01
  0.34191E+00  0.10124E-01  0.34716E-02
  0.34191E+00  0.10124E-01  0.16500E-01
  0.34191E+00  0.10124E-01  0.33500E-01
  0.34191E+00  0.10124E-01  0.46528E-01
  0.33331E+00  0.10124E-01  0.34716E-02
  0.33331E+00  0.10124E-01  0.16500E-01
  0.33331E+00  0.10124E-01  0.33500E-01
  0.33331E+00  0.10124E-01  0.46528E-01
  0.32209E+00  0.10124E-01  0.34716E-02
  0.32209E+00  0.10124E-01  0.16500E-01
  0.32209E+00  0.10124E-01  0.33500E-01
  0.32209E+00  0.10124E-01  0.46528E-01
  0.31348E+00  0.10124E-01  0.34716E-02
  0.31348E+00  0.10124E-01  0.16500E-01
  0.31348E+00  0.10124E-01  0.33500E-01
  0.31348E+00  0.10124E-01  0.46528E-01
  0.34191E+00  0.10124E-01  0.53472E-01
  0.34191E+00  0.10124E-01  0.66500E-01
  0.34191E+00  0.10124E-01  0.83500E-01
  0.34191E+00  0.10124E-01  0.96528E-01
  0.33331E+00  0.10124E-01  0.53472E-01
  0.33331E+00  0.10124E-01  0.66500E-01
  0.33331E+00  0.10124E-01  0.83500E-01
  0.33331E+00  0.10124E-01  0.96528E-01
  0.32209E+00  0.10124E-01  0.53472E-01
  0.32209E+00  0.10124E-01  0.66500E-01
  0.32209E+00  0.10124E-01  0.83500E-01
  0.32209E+00  0.10124E-01  0.96528E-01
  0.31348E+00  0.10124E-01  0.53472E-01
  0.31348E+00  0.10124E-01  0.66500E-01
  0.31348E+00  0.10124E-01  0.83500E-01
  0.31348E+00  0.10124E-01  0.96528E-01
  0.30911E+00  0.10124E-01  0.34716E-02
  0.30911E+00  0.10124E-01  0.16500E-01
  0.30911E+00  0.10124E-01  0.33500E-01
  0.30911E+00  0.10124E-01  0.46528E-01
  0.30129E+00  0.10124E-01  0.34716E-02
  0.30129E+00  0.10124E-01  0.16500E-01
  0.30129E+00  0.10124E-01  0.33500E-01
  0.30129E+00  0.10124E-01  0.46528E-01
  0.29108E+00  0.10124E-01  0.34716E-02
  0.29108E+00  0.10124E-01  0.16500E-01
  0.29108E+00  0.10124E-01  0.33500E-01
  0.29108E+00  0.10124E-01  0.46528E-01
  0.28326E+00  0.10124E-01  0.34716E-02
  0.28326E+00  0.10124E-01  0.16500E-01
  0.28326E+00  0.10124E-01  0.33500E-01
  0.28326E+00  0.10124E-01  0.46528E-01
  0.30911E+00  0.10124E-01  0.53472E-01
  0.30911E+00  0.10124E-01  0.66500E-01
  0.30911E+00  0.10124E-01  0.83500E-01
  0.30911E+00  0.10124E-01  0.96528E-01
  0.30129E+00  0.10124E-01  0.53472E-01
  0.30129E+00  0.10124E-01  0.66500E-01
  0.30129E+00  0.10124E-01  0.83500E-01
  0.30129E+00  0.10124E-01  0.96528E-01
  0.29108E+00  0.10124E-01  0.53472E-01
  0.29108E+00  0.10124E-01  0.66500E-01
  0.29108E+00  0.10124E-01  0.83500E-01
  0.29108E+00  0.10124E-01  0.96528E-01
  0.28326E+00  0.10124E-01  0.53472E-01
  0.28326E+00  0.10124E-01  0.66500E-01
  0.28326E+00  0.10124E-01  0.83500E-01
  0.28326E+00  0.10124E-01  0.96528E-01
  0.27929E+00  0.10124E-01  0.34716E-02
  0.27929E+00  0.10124E-01  0.16500E-01
  0.27929E+00  0.10124E-01  0.33500E-01
  0.27929E+00  0.10124E-01  0.46528E-01
  0.27218E+00  0.10124E-01  0.34716E-02
  0.27218E+00  0.10124E-01  0.16500E-01
  0.27218E+00  0.10124E-01  0.33500E-01
  0.27218E+00  0.10124E-01  0.46528E-01
  0.26290E+00  0.10124E-01  0.34716E-02
  0.26290E+00  0.10124E-01  0.16500E-01
  0.26290E+00  0.10124E-01  0.33500E-01
  0.26290E+00  0.10124E-01  0.46528E-01
  0.25579E+00  0.10124E-01  0.34716E-02
  0.25579E+00  0.10124E-01  0.16500E-01
  0.25579E+00  0.10124E-01  0.33500E-01
  0.25579E+00  0.10124E-01  0.46528E-01
  0.27929E+00  0.10124E-01  0.53472E-01
  0.27929E+00  0.10124E-01  0.66500E-01
  0.27929E+00  0.10124E-01  0.83500E-01
  0.27929E+00  0.10124E-01  0.96528E-01
  0.27218E+00  0.10124E-01  0.53472E-01
  0.27218E+00  0.10124E-01  0.66500E-01
  0.27218E+00  0.10124E-01  0.83500E-01
  0.27218E+00  0.10124E-01  0.96528E-01
  0.26290E+00  0.10124E-01  0.53472E-01
  0.26290E+00  0.10124E-01  0.66500E-01
  0.26290E+00  0.10124E-01  0.83500E-01
  0.26290E+00  0.10124E-01  0.96528E-01
  0.25579E+00  0.10124E-01  0.53472E-01
  0.25579E+00  0.10124E-01  0.66500E-01
  0.25579E+00  0.10124E-01  0.83500E-01
  0.25579E+00  0.10124E-01  0.96528E-01
  0.25218E+00  0.10124E-01  0.34716E-02
  0.25218E+00  0.10124E-01  0.16500E-01
  0.25218E+00  0.10124E-01  0.33500E-01
  0.25218E+00  0.10124E-01  0.46528E-01
  0.24571E+00  0.10124E-01  0.34716E-02
  0.24571E+00  0.10124E-01  0.16500E-01
  0.24571E+00  0.10124E-01  0.33500E-01
  0.24571E+00  0.10124E-01  0.46528E-01
  0.23728E+00  0.10124E-01  0.34716E-02
  0.23728E+00  0.10124E-01  0.16500E-01
  0.23728E+00  0.10124E-01  0.33500E-01
  0.23728E+00  0.10124E-01  0.46528E-01
  0.23082E+00  0.10124E-01  0.34716E-02
  0.23082E+00  0.10124E-01  0.16500E-01
  0.23082E+00  0.10124E-01  0.33500E-01
  0.23082E+00  0.10124E-01  0.46528E-01
  0.25218E+00  0.10124E-01  0.53472E-01
  0.25218E+00  0.10124E-01  0.66500E-01
  0.25218E+00  0.10124E-01  0.83500E-01
  0.25218E+00  0.10124E-01  0.96528E-01
  0.24571E+00  0.10124E-01  0.53472E-01
  0.24571E+00  0.10124E-01  0.66500E-01
  0.24571E+00  0.10124E-01  0.83500E-01
  0.24571E+00  0.10124E-01  0.96528E-01
  0.23728E+00  0.10124E-01  0.53472E-01
  0.23728E+00  0.10124E-01  0.66500E-01
  0.23728E+00  0.10124E-01  0.83500E-01
  0.23728E+00  0.10124E-01  0.96528E-01
  0.23082E+00  0.10124E-01  0.53472E-01
  0.23082E+00  0.10124E-01  0.66500E-01
  0.23082E+00  0.10124E-01  0.83500E-01
  0.23082E+00  0.10124E-01  0.96528E-01
  0.22753E+00  0.10124E-01  0.34716E-02
  0.22753E+00  0.10124E-01  0.16500E-01
  0.22753E+00  0.10124E-01  0.33500E-01
  0.22753E+00  0.10124E-01  0.46528E-01
  0.22166E+00  0.10124E-01  0.34716E-02
  0.22166E+00  0.10124E-01  0.16500E-01
  0.22166E+00  0.10124E-01  0.33500E-01
  0.22166E+00  0.10124E-01  0.46528E-01
  0.21399E+00  0.10124E-01  0.34716E-02
  0.21399E+00  0.10124E-01  0.16500E-01
  0.21399E+00  0.10124E-01  0.33500E-01
  0.21399E+00  0.10124E-01  0.46528E-01
  0.20812E+00  0.10124E-01  0.34716E-02
  0.20812E+00  0.10124E-01  0.16500E-01
  0.20812E+00  0.10124E-01  0.33500E-01
  0.20812E+00  0.10124E-01  0.46528E-01
  0.22753E+00  0.10124E-01  0.53472E-01
  0.22753E+00  0.10124E-01  0.66500E-01
  0.22753E+00  0.10124E-01  0.83500E-01
  0.22753E+00  0.10124E-01  0.96528E-01
  0.22166E+00  0.10124E-01  0.53472E-01
  0.22166E+00  0.10124E-01  0.66500E-01
  0.22166E+00  0.10124E-01  0.83500E-01
  0.22166E+00  0.10124E-01  0.96528E-01
  0.21399E+00  0.10124E-01  0.53472E-01
  0.21399E+00  0.10124E-01  0.66500E-01
  0.21399E+00  0.10124E-01  0.83500E-01
  0.21399E+00  0.10124E-01  0.96528E-01
  0.20812E+00  0.10124E-01  0.53472E-01
  0.20812E+00  0.10124E-01  0.66500E-01
  0.20812E+00  0.10124E-01  0.83500E-01
  0.20812E+00  0.10124E-01  0.96528E-01
  0.20513E+00  0.10124E-01  0.34716E-02
  0.20513E+00  0.10124E-01  0.16500E-01
  0.20513E+00  0.10124E-01  0.33500E-01
  0.20513E+00  0.10124E-01  0.46528E-01
  0.19979E+00  0.10124E-01  0.34716E-02
  0.19979E+00  0.10124E-01  0.16500E-01
  0.19979E+00  0.10124E-01  0.33500E-01
  0.19979E+00  0.10124E-01  0.46528E-01
  0.19282E+00  0.10124E-01  0.34716E-02
  0.19282E+00  0.10124E-01  0.16500E-01
  0.19282E+00  0.10124E-01  0.33500E-01
  0.19282E+00  0.10124E-01  0.46528E-01