TITLE = "Points"
VARIABLES = "x","y","z"
ZONE I=2450,J=2,K=1, DATAPACKING=POINT
  0.19914E+01  0.10412E-01  0.23455E-02
  0.19914E+01  0.10412E-01  0.11538E-01
  0.19914E+01  0.10412E-01  0.25000E-01
  0.19914E+01  0.10412E-01  0.38462E-01
  0.19914E+01  0.10412E-01  0.47654E-01
  0.19914E+01  0.10084E-01  0.23455E-02
  0.19914E+01  0.10084E-01  0.11538E-01
  0.19914E+01  0.10084E-01  0.25000E-01
  0.19914E+01  0.10084E-01  0.38462E-01
  0.19914E+01  0.10084E-01  0.47654E-01
  0.19576E+01  0.10412E-01  0.23455E-02
  0.19576E+01  0.10412E-01  0.11538E-01
  0.19576E+01  0.10412E-01  0.25000E-01
  0.19576E+01  0.10412E-01  0.38462E-01
  0.19576E+01  0.10412E-01  0.47654E-01
  0.19576E+01  0.10084E-01  0.23455E-02
  0.19576E+01  0.10084E-01  0.11538E-01
  0.19576E+01  0.10084E-01  0.25000E-01
  0.19576E+01  0.10084E-01  0.38462E-01
  0.19576E+01  0.10084E-01  0.47654E-01
  0.19082E+01  0.10412E-01  0.23455E-02
  0.19082E+01  0.10412E-01  0.11538E-01
  0.19082E+01  0.10412E-01  0.25000E-01
  0.19082E+01  0.10412E-01  0.38462E-01
  0.19082E+01  0.10412E-01  0.47654E-01
  0.19082E+01  0.10084E-01  0.23455E-02
  0.19082E+01  0.10084E-01  0.11538E-01
  0.19082E+01  0.10084E-01  0.25000E-01
  0.19082E+01  0.10084E-01  0.38462E-01
  0.19082E+01  0.10084E-01  0.47654E-01
  0.18588E+01  0.10412E-01  0.23455E-02
  0.18588E+01  0.10412E-01  0.11538E-01
  0.18588E+01  0.10412E-01  0.25000E-01
  0.18588E+01  0.10412E-01  0.38462E-01
  0.18588E+01  0.10412E-01  0.47654E-01
  0.18588E+01  0.10084E-01  0.23455E-02
  0.18588E+01  0.10084E-01  0.11538E-01
  0.18588E+01  0.10084E-01  0.25000E-01
  0.18588E+01  0.10084E-01  0.38462E-01
  0.18588E+01  0.10084E-01  0.47654E-01
  0.18251E+01  0.10412E-01  0.23455E-02
  0.18251E+01  0.10412E-01  0.11538E-01
  0.18251E+01  0.10412E-01  0.25000E-01
  0.18251E+01  0.10412E-01  0.38462E-01
  0.18251E+01  0.10412E-01  0.47654E-01
  0.18251E+01  0.10084E-01  0.23455E-02
  0.18251E+01  0.10084E-01  0.11538E-01
  0.18251E+01  0.10084E-01  0.25000E-01
  0.18251E+01  0.10084E-01  0.38462E-01
  0.18251E+01  0.10084E-01  0.47654E-01
  0.19914E+01  0.10412E-01  0.52346E-01
  0.19914E+01  0.10412E-01  0.61538E-01
  0.19914E+01  0.10412E-01  0.75000E-01
  0.19914E+01  0.10412E-01  0.88462E-01
  0.19914E+01  0.10412E-01  0.97654E-01
  0.19914E+01  0.10084E-01  0.52346E-01
  0.19914E+01  0.10084E-01  0.61538E-01
  0.19914E+01  0.10084E-01  0.75000E-01
  0.19914E+01  0.10084E-01  0.88462E-01
  0.19914E+01  0.10084E-01  0.97654E-01
  0.19576E+01  0.10412E-01  0.52346E-01
  0.19576E+01  0.10412E-01  0.61538E-01
  0.19576E+01  0.10412E-01  0.75000E-01
  0.19576E+01  0.10412E-01  0.88462E-01
  0.19576E+01  0.10412E-01  0.97654E-01
  0.19576E+01  0.10084E-01  0.52346E-01
  0.19576E+01  0.10084E-01  0.61538E-01
  0.19576E+01  0.10084E-01  0.75000E-01
  0.19576E+01  0.10084E-01  0.88462E-01
  0.19576E+01  0.10084E-01  0.97654E-01
  0.19082E+01  0.10412E-01  0.52346E-01
  0.19082E+01  0.10412E-01  0.61538E-01
  0.19082E+01  0.10412E-01  0.75000E-01
  0.19082E+01  0.10412E-01  0.88462E-01
  0.19082E+01  0.10412E-01  0.97654E-01
  0.19082E+01  0.10084E-01  0.52346E-01
  0.19082E+01  0.10084E-01  0.61538E-01
  0.19082E+01  0.10084E-01  0.75000E-01
  0.19082E+01  0.10084E-01  0.88462E-01
  0.19082E+01  0.10084E-01  0.97654E-01
  0.18588E+01  0.10412E-01  0.52346E-01
  0.18588E+01  0.10412E-01  0.61538E-01
  0.18588E+01  0.10412E-01  0.75000E-01
  0.18588E+01  0.10412E-01  0.88462E-01
  0.18588E+01  0.10412E-01  0.97654E-01
  0.18588E+01  0.10084E-01  0.52346E-01
  0.18588E+01  0.10084E-01  0.61538E-01
  0.18588E+01  0.10084E-01  0.75000E-01
  0.18588E+01  0.10084E-01  0.88462E-01
  0.18588E+01  0.10084E-01  0.97654E-01
  0.18251E+01  0.10412E-01  0.52346E-01
  0.18251E+01  0.10412E-01  0.61538E-01
  0.18251E+01  0.10412E-01  0.75000E-01
  0.18251E+01  0.10412E-01  0.88462E-01
  0.18251E+01  0.10412E-01  0.97654E-01
  0.18251E+01  0.10084E-01  0.52346E-01
  0.18251E+01  0.10084E-01  0.61538E-01
  0.18251E+01  0.10084E-01  0.75000E-01
  0.18251E+01  0.10084E-01  0.88462E-01
  0.18251E+01  0.10084E-01  0.97654E-01
  0.18086E+01  0.10412E-01  0.23455E-02
  0.18086E+01  0.10412E-01  0.11538E-01
  0.18086E+01  0.10412E-01  0.25000E-01
  0.18086E+01  0.10412E-01  0.38462E-01
  0.18086E+01  0.10412E-01  0.47654E-01
  0.18086E+01  0.10084E-01  0.23455E-02
  0.18086E+01  0.10084E-01  0.11538E-01
  0.18086E+01  0.10084E-01  0.25000E-01
  0.18086E+01  0.10084E-01  0.38462E-01
  0.18086E+01  0.10084E-01  0.47654E-01
  0.17780E+01  0.10412E-01  0.23455E-02
  0.17780E+01  0.10412E-01  0.11538E-01
  0.17780E+01  0.10412E-01  0.25000E-01
  0.17780E+01  0.10412E-01  0.38462E-01
  0.17780E+01  0.10412E-01  0.47654E-01
  0.17780E+01  0.10084E-01  0.23455E-02
  0.17780E+01  0.10084E-01  0.11538E-01
  0.17780E+01  0.10084E-01  0.25000E-01
  0.17780E+01  0.10084E-01  0.38462E-01
  0.17780E+01  0.10084E-01  0.47654E-01
  0.17330E+01  0.10412E-01  0.23455E-02
  0.17330E+01  0.10412E-01  0.11538E-01
  0.17330E+01  0.10412E-01  0.25000E-01
  0.17330E+01  0.10412E-01  0.38462E-01
  0.17330E+01  0.10412E-01  0.47654E-01
  0.17330E+01  0.10084E-01  0.23455E-02
  0.17330E+01  0.10084E-01  0.11538E-01
  0.17330E+01  0.10084E-01  0.25000E-01
  0.17330E+01  0.10084E-01  0.38462E-01
  0.17330E+01  0.10084E-01  0.47654E-01
  0.16881E+01  0.10412E-01  0.23455E-02
  0.16881E+01  0.10412E-01  0.11538E-01
  0.16881E+01  0.10412E-01  0.25000E-01
  0.16881E+01  0.10412E-01  0.38462E-01
  0.16881E+01  0.10412E-01  0.47654E-01
  0.16881E+01  0.10084E-01  0.23455E-02
  0.16881E+01  0.10084E-01  0.11538E-01
  0.16881E+01  0.10084E-01  0.25000E-01
  0.16881E+01  0.10084E-01  0.38462E-01
  0.16881E+01  0.10084E-01  0.47654E-01
  0.16574E+01  0.10412E-01  0.23455E-02
  0.16574E+01  0.10412E-01  0.11538E-01
  0.16574E+01  0.10412E-01  0.25000E-01
  0.16574E+01  0.10412E-01  0.38462E-01
  0.16574E+01  0.10412E-01  0.47654E-01
  0.16574E+01  0.10084E-01  0.23455E-02
  0.16574E+01  0.10084E-01  0.11538E-01
  0.16574E+01  0.10084E-01  0.25000E-01
  0.16574E+01  0.10084E-01  0.38462E-01
  0.16574E+01  0.10084E-01  0.47654E-01
  0.18086E+01  0.10412E-01  0.52346E-01
  0.18086E+01  0.10412E-01  0.61538E-01
  0.18086E+01  0.10412E-01  0.75000E-01
  0.18086E+01  0.10412E-01  0.88462E-01
  0.18086E+01  0.10412E-01  0.97654E-01
  0.18086E+01  0.10084E-01  0.52346E-01
  0.18086E+01  0.10084E-01  0.61538E-01
  0.18086E+01  0.10084E-01  0.75000E-01
  0.18086E+01  0.10084E-01  0.88462E-01
  0.18086E+01  0.10084E-01  0.97654E-01
  0.17780E+01  0.10412E-01  0.52346E-01
  0.17780E+01  0.10412E-01  0.61538E-01
  0.17780E+01  0.10412E-01  0.75000E-01
  0.17780E+01  0.10412E-01  0.88462E-01
  0.17780E+01  0.10412E-01  0.97654E-01
  0.17780E+01  0.10084E-01  0.52346E-01
  0.17780E+01  0.10084E-01  0.61538E-01
  0.17780E+01  0.10084E-01  0.75000E-01
  0.17780E+01  0.10084E-01  0.88462E-01
  0.17780E+01  0.10084E-01  0.97654E-01
  0.17330E+01  0.10412E-01  0.52346E-01
  0.17330E+01  0.10412E-01  0.61538E-01
  0.17330E+01  0.10412E-01  0.75000E-01
  0.17330E+01  0.10412E-01  0.88462E-01
  0.17330E+01  0.10412E-01  0.97654E-01
  0.17330E+01  0.10084E-01  0.52346E-01
  0.17330E+01  0.10084E-01  0.61538E-01
  0.17330E+01  0.10084E-01  0.75000E-01
  0.17330E+01  0.10084E-01  0.88462E-01
  0.17330E+01  0.10084E-01  0.97654E-01
  0.16881E+01  0.10412E-01  0.52346E-01
  0.16881E+01  0.10412E-01  0.61538E-01
  0.16881E+01  0.10412E-01  0.75000E-01
  0.16881E+01  0.10412E-01  0.88462E-01
  0.16881E+01  0.10412E-01  0.97654E-01
  0.16881E+01  0.10084E-01  0.52346E-01
  0.16881E+01  0.10084E-01  0.61538E-01
  0.16881E+01  0.10084E-01  0.75000E-01
  0.16881E+01  0.10084E-01  0.88462E-01
  0.16881E+01  0.10084E-01  0.97654E-01
  0.16574E+01  0.10412E-01  0.52346E-01
  0.16574E+01  0.10412E-01  0.61538E-01
  0.16574E+01  0.10412E-01  0.75000E-01
  0.16574E+01  0.10412E-01  0.88462E-01
  0.16574E+01  0.10412E-01  0.97654E-01
  0.16574E+01  0.10084E-01  0.52346E-01
  0.16574E+01  0.10084E-01  0.61538E-01
  0.16574E+01  0.10084E-01  0.75000E-01
  0.16574E+01  0.10084E-01  0.88462E-01
  0.16574E+01  0.10084E-01  0.97654E-01
  0.16425E+01  0.10412E-01  0.23455E-02
  0.16425E+01  0.10412E-01  0.11538E-01
  0.16425E+01  0.10412E-01  0.25000E-01
  0.16425E+01  0.10412E-01  0.38462E-01
  0.16425E+01  0.10412E-01  0.47654E-01
  0.16425E+01  0.10084E-01  0.23455E-02
  0.16425E+01  0.10084E-01  0.11538E-01
  0.16425E+01  0.10084E-01  0.25000E-01
  0.16425E+01  0.10084E-01  0.38462E-01
  0.16425E+01  0.10084E-01  0.47654E-01
  0.16146E+01  0.10412E-01  0.23455E-02
  0.16146E+01  0.10412E-01  0.11538E-01
  0.16146E+01  0.10412E-01  0.25000E-01
  0.16146E+01  0.10412E-01  0.38462E-01
  0.16146E+01  0.10412E-01  0.47654E-01
  0.16146E+01  0.10084E-01  0.23455E-02
  0.16146E+01  0.10084E-01  0.11538E-01
  0.16146E+01  0.10084E-01  0.25000E-01
  0.16146E+01  0.10084E-01  0.38462E-01
  0.16146E+01  0.10084E-01  0.47654E-01
  0.15738E+01  0.10412E-01  0.23455E-02
  0.15738E+01  0.10412E-01  0.11538E-01
  0.15738E+01  0.10412E-01  0.25000E-01
  0.15738E+01  0.10412E-01  0.38462E-01
  0.15738E+01  0.10412E-01  0.47654E-01
  0.15738E+01  0.10084E-01  0.23455E-02
  0.15738E+01  0.10084E-01  0.11538E-01
  0.15738E+01  0.10084E-01  0.25000E-01
  0.15738E+01  0.10084E-01  0.38462E-01
  0.15738E+01  0.10084E-01  0.47654E-01
  0.15329E+01  0.10412E-01  0.23455E-02
  0.15329E+01  0.10412E-01  0.11538E-01
  0.15329E+01  0.10412E-01  0.25000E-01
  0.15329E+01  0.10412E-01  0.38462E-01
  0.15329E+01  0.10412E-01  0.47654E-01
  0.15329E+01  0.10084E-01  0.23455E-02
  0.15329E+01  0.10084E-01  0.11538E-01
  0.15329E+01  0.10084E-01  0.25000E-01
  0.15329E+01  0.10084E-01  0.38462E-01
  0.15329E+01  0.10084E-01  0.47654E-01
  0.15050E+01  0.10412E-01  0.23455E-02
  0.15050E+01  0.10412E-01  0.11538E-01
  0.15050E+01  0.10412E-01  0.25000E-01
  0.15050E+01  0.10412E-01  0.38462E-01
  0.15050E+01  0.10412E-01  0.47654E-01
  0.15050E+01  0.10084E-01  0.23455E-02
  0.15050E+01  0.10084E-01  0.11538E-01
  0.15050E+01  0.10084E-01  0.25000E-01
  0.15050E+01  0.10084E-01  0.38462E-01
  0.15050E+01  0.10084E-01  0.47654E-01
  0.16425E+01  0.10412E-01  0.52346E-01
  0.16425E+01  0.10412E-01  0.61538E-01
  0.16425E+01  0.10412E-01  0.75000E-01
  0.16425E+01  0.10412E-01  0.88462E-01
  0.16425E+01  0.10412E-01  0.97654E-01
  0.16425E+01  0.10084E-01  0.52346E-01
  0.16425E+01  0.10084E-01  0.61538E-01
  0.16425E+01  0.10084E-01  0.75000E-01
  0.16425E+01  0.10084E-01  0.88462E-01
  0.16425E+01  0.10084E-01  0.97654E-01
  0.16146E+01  0.10412E-01  0.52346E-01
  0.16146E+01  0.10412E-01  0.61538E-01
  0.16146E+01  0.10412E-01  0.75000E-01
  0.16146E+01  0.10412E-01  0.88462E-01
  0.16146E+01  0.10412E-01  0.97654E-01
  0.16146E+01  0.10084E-01  0.52346E-01
  0.16146E+01  0.10084E-01  0.61538E-01
  0.16146E+01  0.10084E-01  0.75000E-01
  0.16146E+01  0.10084E-01  0.88462E-01
  0.16146E+01  0.10084E-01  0.97654E-01
  0.15738E+01  0.10412E-01  0.52346E-01
  0.15738E+01  0.10412E-01  0.61538E-01
  0.15738E+01  0.10412E-01  0.75000E-01
  0.15738E+01  0.10412E-01  0.88462E-01
  0.15738E+01  0.10412E-01  0.97654E-01
  0.15738E+01  0.10084E-01  0.52346E-01
  0.15738E+01  0.10084E-01  0.61538E-01
  0.15738E+01  0.10084E-01  0.75000E-01
  0.15738E+01  0.10084E-01  0.88462E-01
  0.15738E+01  0.10084E-01  0.97654E-01
  0.15329E+01  0.10412E-01  0.52346E-01
  0.15329E+01  0.10412E-01  0.61538E-01
  0.15329E+01  0.10412E-01  0.75000E-01
  0.15329E+01  0.10412E-01  0.88462E-01
  0.15329E+01  0.10412E-01  0.97654E-01
  0.15329E+01  0.10084E-01  0.52346E-01
  0.15329E+01  0.10084E-01  0.61538E-01
  0.15329E+01  0.10084E-01  0.75000E-01
  0.15329E+01  0.10084E-01  0.88462E-01
  0.15329E+01  0.10084E-01  0.97654E-01
  0.15050E+01  0.10412E-01  0.52346E-01
  0.15050E+01  0.10412E-01  0.61538E-01
  0.15050E+01  0.10412E-01  0.75000E-01
  0.15050E+01  0.10412E-01  0.88462E-01
  0.15050E+01  0.10412E-01  0.97654E-01
  0.15050E+01  0.10084E-01  0.52346E-01
  0.15050E+01  0.10084E-01  0.61538E-01
  0.15050E+01  0.10084E-01  0.75000E-01
  0.15050E+01  0.10084E-01  0.88462E-01
  0.15050E+01  0.10084E-01  0.97654E-01
  0.14915E+01  0.10412E-01  0.23455E-02
  0.14915E+01  0.10412E-01  0.11538E-01
  0.14915E+01  0.10412E-01  0.25000E-01
  0.14915E+01  0.10412E-01  0.38462E-01
  0.14915E+01  0.10412E-01  0.47654E-01
  0.14915E+01  0.10084E-01  0.23455E-02
  0.14915E+01  0.10084E-01  0.11538E-01
  0.14915E+01  0.10084E-01  0.25000E-01
  0.14915E+01  0.10084E-01  0.38462E-01
  0.14915E+01  0.10084E-01  0.47654E-01
  0.14661E+01  0.10412E-01  0.23455E-02
  0.14661E+01  0.10412E-01  0.11538E-01
  0.14661E+01  0.10412E-01  0.25000E-01
  0.14661E+01  0.10412E-01  0.38462E-01
  0.14661E+01  0.10412E-01  0.47654E-01
  0.14661E+01  0.10084E-01  0.23455E-02
  0.14661E+01  0.10084E-01  0.11538E-01
  0.14661E+01  0.10084E-01  0.25000E-01
  0.14661E+01  0.10084E-01  0.38462E-01
  0.14661E+01  0.10084E-01  0.47654E-01
  0.14290E+01  0.10412E-01  0.23455E-02
  0.14290E+01  0.10412E-01  0.11538E-01
  0.14290E+01  0.10412E-01  0.25000E-01
  0.14290E+01  0.10412E-01  0.38462E-01
  0.14290E+01  0.10412E-01  0.47654E-01
  0.14290E+01  0.10084E-01  0.23455E-02
  0.14290E+01  0.10084E-01  0.11538E-01
  0.14290E+01  0.10084E-01  0.25000E-01
  0.14290E+01  0.10084E-01  0.38462E-01
  0.14290E+01  0.10084E-01  0.47654E-01
  0.13919E+01  0.10412E-01  0.23455E-02
  0.13919E+01  0.10412E-01  0.11538E-01
  0.13919E+01  0.10412E-01  0.25000E-01
  0.13919E+01  0.10412E-01  0.38462E-01
  0.13919E+01  0.10412E-01  0.47654E-01
  0.13919E+01  0.10084E-01  0.23455E-02
  0.13919E+01  0.10084E-01  0.11538E-01
  0.13919E+01  0.10084E-01  0.25000E-01
  0.13919E+01  0.10084E-01  0.38462E-01
  0.13919E+01  0.10084E-01  0.47654E-01
  0.13665E+01  0.10412E-01  0.23455E-02
  0.13665E+01  0.10412E-01  0.11538E-01
  0.13665E+01  0.10412E-01  0.25000E-01
  0.13665E+01  0.10412E-01  0.38462E-01
  0.13665E+01  0.10412E-01  0.47654E-01
  0.13665E+01  0.10084E-01  0.23455E-02
  0.13665E+01  0.10084E-01  0.11538E-01
  0.13665E+01  0.10084E-01  0.25000E-01
  0.13665E+01  0.10084E-01  0.38462E-01
  0.13665E+01  0.10084E-01  0.47654E-01
  0.14915E+01  0.10412E-01  0.52346E-01
  0.14915E+01  0.10412E-01  0.61538E-01
  0.14915E+01  0.10412E-01  0.75000E-01
  0.14915E+01  0.10412E-01  0.88462E-01
  0.14915E+01  0.10412E-01  0.97654E-01
  0.14915E+01  0.10084E-01  0.52346E-01
  0.14915E+01  0.10084E-01  0.61538E-01
  0.14915E+01  0.10084E-01  0.75000E-01
  0.14915E+01  0.10084E-01  0.88462E-01
  0.14915E+01  0.10084E-01  0.97654E-01
  0.14661E+01  0.10412E-01  0.52346E-01
  0.14661E+01  0.10412E-01  0.61538E-01
  0.14661E+01  0.10412E-01  0.75000E-01
  0.14661E+01  0.10412E-01  0.88462E-01
  0.14661E+01  0.10412E-01  0.97654E-01
  0.14661E+01  0.10084E-01  0.52346E-01
  0.14661E+01  0.10084E-01  0.61538E-01
  0.14661E+01  0.10084E-01  0.75000E-01
  0.14661E+01  0.10084E-01  0.88462E-01
  0.14661E+01  0.10084E-01  0.97654E-01
  0.14290E+01  0.10412E-01  0.52346E-01
  0.14290E+01  0.10412E-01  0.61538E-01
  0.14290E+01  0.10412E-01  0.75000E-01
  0.14290E+01  0.10412E-01  0.88462E-01
  0.14290E+01  0.10412E-01  0.97654E-01
  0.14290E+01  0.10084E-01  0.52346E-01
  0.14290E+01  0.10084E-01  0.61538E-01
  0.14290E+01  0.10084E-01  0.75000E-01
  0.14290E+01  0.10084E-01  0.88462E-01
  0.14290E+01  0.10084E-01  0.97654E-01
  0.13919E+01  0.10412E-01  0.52346E-01
  0.13919E+01  0.10412E-01  0.61538E-01
  0.13919E+01  0.10412E-01  0.75000E-01
  0.13919E+01  0.10412E-01  0.88462E-01
  0.13919E+01  0.10412E-01  0.97654E-01
  0.13919E+01  0.10084E-01  0.52346E-01
  0.13919E+01  0.10084E-01  0.61538E-01
  0.13919E+01  0.10084E-01  0.75000E-01
  0.13919E+01  0.10084E-01  0.88462E-01
  0.13919E+01  0.10084E-01  0.97654E-01
  0.13665E+01  0.10412E-01  0.52346E-01
  0.13665E+01  0.10412E-01  0.61538E-01
  0.13665E+01  0.10412E-01  0.75000E-01
  0.13665E+01  0.10412E-01  0.88462E-01
  0.13665E+01  0.10412E-01  0.97654E-01
  0.13665E+01  0.10084E-01  0.52346E-01
  0.13665E+01  0.10084E-01  0.61538E-01
  0.13665E+01  0.10084E-01  0.75000E-01
  0.13665E+01  0.10084E-01  0.88462E-01
  0.13665E+01  0.10084E-01  0.97654E-01
  0.13541E+01  0.10412E-01  0.23455E-02
  0.13541E+01  0.10412E-01  0.11538E-01
  0.13541E+01  0.10412E-01  0.25000E-01
  0.13541E+01  0.10412E-01  0.38462E-01
  0.13541E+01  0.10412E-01  0.47654E-01
  0.13541E+01  0.10084E-01  0.23455E-02
  0.13541E+01  0.10084E-01  0.11538E-01
  0.13541E+01  0.10084E-01  0.25000E-01
  0.13541E+01  0.10084E-01  0.38462E-01
  0.13541E+01  0.10084E-01  0.47654E-01
  0.13311E+01  0.10412E-01  0.23455E-02
  0.13311E+01  0.10412E-01  0.11538E-01
  0.13311E+01  0.10412E-01  0.25000E-01
  0.13311E+01  0.10412E-01  0.38462E-01
  0.13311E+01  0.10412E-01  0.47654E-01
  0.13311E+01  0.10084E-01  0.23455E-02
  0.13311E+01  0.10084E-01  0.11538E-01
  0.13311E+01  0.10084E-01  0.25000E-01
  0.13311E+01  0.10084E-01  0.38462E-01
  0.13311E+01  0.10084E-01  0.47654E-01
  0.12974E+01  0.10412E-01  0.23455E-02
  0.12974E+01  0.10412E-01  0.11538E-01
  0.12974E+01  0.10412E-01  0.25000E-01
  0.12974E+01  0.10412E-01  0.38462E-01
  0.12974E+01  0.10412E-01  0.47654E-01
  0.12974E+01  0.10084E-01  0.23455E-02
  0.12974E+01  0.10084E-01  0.11538E-01
  0.12974E+01  0.10084E-01  0.25000E-01
  0.12974E+01  0.10084E-01  0.38462E-01
  0.12974E+01  0.10084E-01  0.47654E-01
  0.12636E+01  0.10412E-01  0.23455E-02
  0.12636E+01  0.10412E-01  0.11538E-01
  0.12636E+01  0.10412E-01  0.25000E-01
  0.12636E+01  0.10412E-01  0.38462E-01
  0.12636E+01  0.10412E-01  0.47654E-01
  0.12636E+01  0.10084E-01  0.23455E-02
  0.12636E+01  0.10084E-01  0.11538E-01
  0.12636E+01  0.10084E-01  0.25000E-01
  0.12636E+01  0.10084E-01  0.38462E-01
  0.12636E+01  0.10084E-01  0.47654E-01
  0.12406E+01  0.10412E-01  0.23455E-02
  0.12406E+01  0.10412E-01  0.11538E-01
  0.12406E+01  0.10412E-01  0.25000E-01
  0.12406E+01  0.10412E-01  0.38462E-01
  0.12406E+01  0.10412E-01  0.47654E-01
  0.12406E+01  0.10084E-01  0.23455E-02
  0.12406E+01  0.10084E-01  0.11538E-01
  0.12406E+01  0.10084E-01  0.25000E-01
  0.12406E+01  0.10084E-01  0.38462E-01
  0.12406E+01  0.10084E-01  0.47654E-01
  0.13541E+01  0.10412E-01  0.52346E-01
  0.13541E+01  0.10412E-01  0.61538E-01
  0.13541E+01  0.10412E-01  0.75000E-01
  0.13541E+01  0.10412E-01  0.88462E-01
  0.13541E+01  0.10412E-01  0.97654E-01
  0.13541E+01  0.10084E-01  0.52346E-01
  0.13541E+01  0.10084E-01  0.61538E-01
  0.13541E+01  0.10084E-01  0.75000E-01
  0.13541E+01  0.10084E-01  0.88462E-01
  0.13541E+01  0.10084E-01  0.97654E-01
  0.13311E+01  0.10412E-01  0.52346E-01
  0.13311E+01  0.10412E-01  0.61538E-01
  0.13311E+01  0.10412E-01  0.75000E-01
  0.13311E+01  0.10412E-01  0.88462E-01
  0.13311E+01  0.10412E-01  0.97654E-01
  0.13311E+01  0.10084E-01  0.52346E-01
  0.13311E+01  0.10084E-01  0.61538E-01
  0.13311E+01  0.10084E-01  0.75000E-01
  0.13311E+01  0.10084E-01  0.88462E-01
  0.13311E+01  0.10084E-01  0.97654E-01
  0.12974E+01  0.10412E-01  0.52346E-01
  0.12974E+01  0.10412E-01  0.61538E-01
  0.12974E+01  0.10412E-01  0.75000E-01
  0.12974E+01  0.10412E-01  0.88462E-01
  0.12974E+01  0.10412E-01  0.97654E-01
  0.12974E+01  0.10084E-01  0.52346E-01
  0.12974E+01  0.10084E-01  0.61538E-01
  0.12974E+01  0.10084E-01  0.75000E-01
  0.12974E+01  0.10084E-01  0.88462E-01
  0.12974E+01  0.10084E-01  0.97654E-01
  0.12636E+01  0.10412E-01  0.52346E-01
  0.12636E+01  0.10412E-01  0.61538E-01
  0.12636E+01  0.10412E-01  0.75000E-01
  0.12636E+01  0.10412E-01  0.88462E-01
  0.12636E+01  0.10412E-01  0.97654E-01
  0.12636E+01  0.10084E-01  0.52346E-01
  0.12636E+01  0.10084E-01  0.61538E-01
  0.12636E+01  0.10084E-01  0.75000E-01
  0.12636E+01  0.10084E-01  0.88462E-01
  0.12636E+01  0.10084E-01  0.97654E-01
  0.12406E+01  0.10412E-01  0.52346E-01
  0.12406E+01  0.10412E-01  0.61538E-01
  0.12406E+01  0.10412E-01  0.75000E-01
  0.12406E+01  0.10412E-01  0.88462E-01
  0.12406E+01  0.10412E-01  0.97654E-01
  0.12406E+01  0.10084E-01  0.52346E-01
  0.12406E+01  0.10084E-01  0.61538E-01
  0.12406E+01  0.10084E-01  0.75000E-01
  0.12406E+01  0.10084E-01  0.88462E-01
  0.12406E+01  0.10084E-01  0.97654E-01
  0.12293E+01  0.10412E-01  0.23455E-02
  0.12293E+01  0.10412E-01  0.11538E-01
  0.12293E+01  0.10412E-01  0.25000E-01
  0.12293E+01  0.10412E-01  0.38462E-01
  0.12293E+01  0.10412E-01  0.47654E-01
  0.12293E+01  0.10084E-01  0.23455E-02
  0.12293E+01  0.10084E-01  0.11538E-01
  0.12293E+01  0.10084E-01  0.25000E-01
  0.12293E+01  0.10084E-01  0.38462E-01
  0.12293E+01  0.10084E-01  0.47654E-01
  0.12084E+01  0.10412E-01  0.23455E-02
  0.12084E+01  0.10412E-01  0.11538E-01
  0.12084E+01  0.10412E-01  0.25000E-01
  0.12084E+01  0.10412E-01  0.38462E-01
  0.12084E+01  0.10412E-01  0.47654E-01
  0.12084E+01  0.10084E-01  0.23455E-02
  0.12084E+01  0.10084E-01  0.11538E-01
  0.12084E+01  0.10084E-01  0.25000E-01
  0.12084E+01  0.10084E-01  0.38462E-01
  0.12084E+01  0.10084E-01  0.47654E-01
  0.11777E+01  0.10412E-01  0.23455E-02
  0.11777E+01  0.10412E-01  0.11538E-01
  0.11777E+01  0.10412E-01  0.25000E-01
  0.11777E+01  0.10412E-01  0.38462E-01
  0.11777E+01  0.10412E-01  0.47654E-01
  0.11777E+01  0.10084E-01  0.23455E-02
  0.11777E+01  0.10084E-01  0.11538E-01
  0.11777E+01  0.10084E-01  0.25000E-01
  0.11777E+01  0.10084E-01  0.38462E-01
  0.11777E+01  0.10084E-01  0.47654E-01
  0.11470E+01  0.10412E-01  0.23455E-02
  0.11470E+01  0.10412E-01  0.11538E-01
  0.11470E+01  0.10412E-01  0.25000E-01
  0.11470E+01  0.10412E-01  0.38462E-01
  0.11470E+01  0.10412E-01  0.47654E-01
  0.11470E+01  0.10084E-01  0.23455E-02
  0.11470E+01  0.10084E-01  0.11538E-01
  0.11470E+01  0.10084E-01  0.25000E-01
  0.11470E+01  0.10084E-01  0.38462E-01
  0.11470E+01  0.10084E-01  0.47654E-01
  0.11261E+01  0.10412E-01  0.23455E-02
  0.11261E+01  0.10412E-01  0.11538E-01
  0.11261E+01  0.10412E-01  0.25000E-01
  0.11261E+01  0.10412E-01  0.38462E-01
  0.11261E+01  0.10412E-01  0.47654E-01
  0.11261E+01  0.10084E-01  0.23455E-02
  0.11261E+01  0.10084E-01  0.11538E-01
  0.11261E+01  0.10084E-01  0.25000E-01
  0.11261E+01  0.10084E-01  0.38462E-01
  0.11261E+01  0.10084E-01  0.47654E-01
  0.12293E+01  0.10412E-01  0.52346E-01
  0.12293E+01  0.10412E-01  0.61538E-01
  0.12293E+01  0.10412E-01  0.75000E-01
  0.12293E+01  0.10412E-01  0.88462E-01
  0.12293E+01  0.10412E-01  0.97654E-01
  0.12293E+01  0.10084E-01  0.52346E-01
  0.12293E+01  0.10084E-01  0.61538E-01
  0.12293E+01  0.10084E-01  0.75000E-01
  0.12293E+01  0.10084E-01  0.88462E-01
  0.12293E+01  0.10084E-01  0.97654E-01
  0.12084E+01  0.10412E-01  0.52346E-01
  0.12084E+01  0.10412E-01  0.61538E-01
  0.12084E+01  0.10412E-01  0.75000E-01
  0.12084E+01  0.10412E-01  0.88462E-01
  0.12084E+01  0.10412E-01  0.97654E-01
  0.12084E+01  0.10084E-01  0.52346E-01
  0.12084E+01  0.10084E-01  0.61538E-01
  0.12084E+01  0.10084E-01  0.75000E-01
  0.12084E+01  0.10084E-01  0.88462E-01
  0.12084E+01  0.10084E-01  0.97654E-01
  0.11777E+01  0.10412E-01  0.52346E-01
  0.11777E+01  0.10412E-01  0.61538E-01
  0.11777E+01  0.10412E-01  0.75000E-01
  0.11777E+01  0.10412E-01  0.88462E-01
  0.11777E+01  0.10412E-01  0.97654E-01
  0.11777E+01  0.10084E-01  0.52346E-01
  0.11777E+01  0.10084E-01  0.61538E-01
  0.11777E+01  0.10084E-01  0.75000E-01
  0.11777E+01  0.10084E-01  0.88462E-01
  0.11777E+01  0.10084E-01  0.97654E-01
  0.11470E+01  0.10412E-01  0.52346E-01
  0.11470E+01  0.10412E-01  0.61538E-01
  0.11470E+01  0.10412E-01  0.75000E-01
  0.11470E+01  0.10412E-01  0.88462E-01
  0.11470E+01  0.10412E-01  0.97654E-01
  0.11470E+01  0.10084E-01  0.52346E-01
  0.11470E+01  0.10084E-01  0.61538E-01
  0.11470E+01  0.10084E-01  0.75000E-01
  0.11470E+01  0.10084E-01  0.88462E-01
  0.11470E+01  0.10084E-01  0.97654E-01
  0.11261E+01  0.10412E-01  0.52346E-01
  0.11261E+01  0.10412E-01  0.61538E-01
  0.11261E+01  0.10412E-01  0.75000E-01
  0.11261E+01  0.10412E-01  0.88462E-01
  0.11261E+01  0.10412E-01  0.97654E-01
  0.11261E+01  0.10084E-01  0.52346E-01
  0.11261E+01  0.10084E-01  0.61538E-01
  0.11261E+01  0.10084E-01  0.75000E-01
  0.11261E+01  0.10084E-01  0.88462E-01
  0.11261E+01  0.10084E-01  0.97654E-01
  0.11158E+01  0.10412E-01  0.23455E-02
  0.11158E+01  0.10412E-01  0.11538E-01
  0.11158E+01  0.10412E-01  0.25000E-01
  0.11158E+01  0.10412E-01  0.38462E-01
  0.11158E+01  0.10412E-01  0.47654E-01
  0.11158E+01  0.10084E-01  0.23455E-02
  0.11158E+01  0.10084E-01  0.11538E-01
  0.11158E+01  0.10084E-01  0.25000E-01
  0.11158E+01  0.10084E-01  0.38462E-01
  0.11158E+01  0.10084E-01  0.47654E-01
  0.10968E+01  0.10412E-01  0.23455E-02
  0.10968E+01  0.10412E-01  0.11538E-01
  0.10968E+01  0.10412E-01  0.25000E-01
  0.10968E+01  0.10412E-01  0.38462E-01
  0.10968E+01  0.10412E-01  0.47654E-01
  0.10968E+01  0.10084E-01  0.23455E-02
  0.10968E+01  0.10084E-01  0.11538E-01
  0.10968E+01  0.10084E-01  0.25000E-01
  0.10968E+01  0.10084E-01  0.38462E-01
  0.10968E+01  0.10084E-01  0.47654E-01
  0.10689E+01  0.10412E-01  0.23455E-02
  0.10689E+01  0.10412E-01  0.11538E-01
  0.10689E+01  0.10412E-01  0.25000E-01
  0.10689E+01  0.10412E-01  0.38462E-01
  0.10689E+01  0.10412E-01  0.47654E-01
  0.10689E+01  0.10084E-01  0.23455E-02
  0.10689E+01  0.10084E-01  0.11538E-01
  0.10689E+01  0.10084E-01  0.25000E-01
  0.10689E+01  0.10084E-01  0.38462E-01
  0.10689E+01  0.10084E-01  0.47654E-01
  0.10410E+01  0.10412E-01  0.23455E-02
  0.10410E+01  0.10412E-01  0.11538E-01
  0.10410E+01  0.10412E-01  0.25000E-01
  0.10410E+01  0.10412E-01  0.38462E-01
  0.10410E+01  0.10412E-01  0.47654E-01
  0.10410E+01  0.10084E-01  0.23455E-02
  0.10410E+01  0.10084E-01  0.11538E-01
  0.10410E+01  0.10084E-01  0.25000E-01
  0.10410E+01  0.10084E-01  0.38462E-01
  0.10410E+01  0.10084E-01  0.47654E-01
  0.10220E+01  0.10412E-01  0.23455E-02
  0.10220E+01  0.10412E-01  0.11538E-01
  0.10220E+01  0.10412E-01  0.25000E-01
  0.10220E+01  0.10412E-01  0.38462E-01
  0.10220E+01  0.10412E-01  0.47654E-01
  0.10220E+01  0.10084E-01  0.23455E-02
  0.10220E+01  0.10084E-01  0.11538E-01
  0.10220E+01  0.10084E-01  0.25000E-01
  0.10220E+01  0.10084E-01  0.38462E-01
  0.10220E+01  0.10084E-01  0.47654E-01
  0.11158E+01  0.10412E-01  0.52346E-01
  0.11158E+01  0.10412E-01  0.61538E-01
  0.11158E+01  0.10412E-01  0.75000E-01
  0.11158E+01  0.10412E-01  0.88462E-01
  0.11158E+01  0.10412E-01  0.97654E-01
  0.11158E+01  0.10084E-01  0.52346E-01
  0.11158E+01  0.10084E-01  0.61538E-01
  0.11158E+01  0.10084E-01  0.75000E-01
  0.11158E+01  0.10084E-01  0.88462E-01
  0.11158E+01  0.10084E-01  0.97654E-01
  0.10968E+01  0.10412E-01  0.52346E-01
  0.10968E+01  0.10412E-01  0.61538E-01
  0.10968E+01  0.10412E-01  0.75000E-01
  0.10968E+01  0.10412E-01  0.88462E-01
  0.10968E+01  0.10412E-01  0.97654E-01
  0.10968E+01  0.10084E-01  0.52346E-01
  0.10968E+01  0.10084E-01  0.61538E-01
  0.10968E+01  0.10084E-01  0.75000E-01
  0.10968E+01  0.10084E-01  0.88462E-01
  0.10968E+01  0.10084E-01  0.97654E-01
  0.10689E+01  0.10412E-01  0.52346E-01
  0.10689E+01  0.10412E-01  0.61538E-01
  0.10689E+01  0.10412E-01  0.75000E-01
  0.10689E+01  0.10412E-01  0.88462E-01
  0.10689E+01  0.10412E-01  0.97654E-01
  0.10689E+01  0.10084E-01  0.52346E-01
  0.10689E+01  0.10084E-01  0.61538E-01
  0.10689E+01  0.10084E-01  0.75000E-01
  0.10689E+01  0.10084E-01  0.88462E-01
  0.10689E+01  0.10084E-01  0.97654E-01
  0.10410E+01  0.10412E-01  0.52346E-01
  0.10410E+01  0.10412E-01  0.61538E-01
  0.10410E+01  0.10412E-01  0.75000E-01
  0.10410E+01  0.10412E-01  0.88462E-01
  0.10410E+01  0.10412E-01  0.97654E-01
  0.10410E+01  0.10084E-01  0.52346E-01
  0.10410E+01  0.10084E-01  0.61538E-01
  0.10410E+01  0.10084E-01  0.75000E-01
  0.10410E+01  0.10084E-01  0.88462E-01
  0.10410E+01  0.10084E-01  0.97654E-01
  0.10220E+01  0.10412E-01  0.52346E-01
  0.10220E+01  0.10412E-01  0.61538E-01
  0.10220E+01  0.10412E-01  0.75000E-01
  0.10220E+01  0.10412E-01  0.88462E-01
  0.10220E+01  0.10412E-01  0.97654E-01
  0.10220E+01  0.10084E-01  0.52346E-01
  0.10220E+01  0.10084E-01  0.61538E-01
  0.10220E+01  0.10084E-01  0.75000E-01
  0.10220E+01  0.10084E-01  0.88462E-01
  0.10220E+01  0.10084E-01  0.97654E-01
  0.10127E+01  0.10412E-01  0.23455E-02
  0.10127E+01  0.10412E-01  0.11538E-01
  0.10127E+01  0.10412E-01  0.25000E-01
  0.10127E+01  0.10412E-01  0.38462E-01
  0.10127E+01  0.10412E-01  0.47654E-01
  0.10127E+01  0.10084E-01  0.23455E-02
  0.10127E+01  0.10084E-01  0.11538E-01
  0.10127E+01  0.10084E-01  0.25000E-01
  0.10127E+01  0.10084E-01  0.38462E-01
  0.10127E+01  0.10084E-01  0.47654E-01
  0.99537E+00  0.10412E-01  0.23455E-02
  0.99537E+00  0.10412E-01  0.11538E-01
  0.99537E+00  0.10412E-01  0.25000E-01
  0.99537E+00  0.10412E-01  0.38462E-01
  0.99537E+00  0.10412E-01  0.47654E-01
  0.99537E+00  0.10084E-01  0.23455E-02
  0.99537E+00  0.10084E-01  0.11538E-01
  0.99537E+00  0.10084E-01  0.25000E-01
  0.99537E+00  0.10084E-01  0.38462E-01
  0.99537E+00  0.10084E-01  0.47654E-01
  0.97001E+00  0.10412E-01  0.23455E-02
  0.97001E+00  0.10412E-01  0.11538E-01
  0.97001E+00  0.10412E-01  0.25000E-01
  0.97001E+00  0.10412E-01  0.38462E-01
  0.97001E+00  0.10412E-01  0.47654E-01
  0.97001E+00  0.10084E-01  0.23455E-02
  0.97001E+00  0.10084E-01  0.11538E-01
  0.97001E+00  0.10084E-01  0.25000E-01
  0.97001E+00  0.10084E-01  0.38462E-01
  0.97001E+00  0.10084E-01  0.47654E-01
  0.94466E+00  0.10412E-01  0.23455E-02
  0.94466E+00  0.10412E-01  0.11538E-01
  0.94466E+00  0.10412E-01  0.25000E-01
  0.94466E+00  0.10412E-01  0.38462E-01
  0.94466E+00  0.10412E-01  0.47654E-01
  0.94466E+00  0.10084E-01  0.23455E-02
  0.94466E+00  0.10084E-01  0.11538E-01
  0.94466E+00  0.10084E-01  0.25000E-01
  0.94466E+00  0.10084E-01  0.38462E-01
  0.94466E+00  0.10084E-01  0.47654E-01
  0.92734E+00  0.10412E-01  0.23455E-02
  0.92734E+00  0.10412E-01  0.11538E-01
  0.92734E+00  0.10412E-01  0.25000E-01
  0.92734E+00  0.10412E-01  0.38462E-01
  0.92734E+00  0.10412E-01  0.47654E-01
  0.92734E+00  0.10084E-01  0.23455E-02
  0.92734E+00  0.10084E-01  0.11538E-01
  0.92734E+00  0.10084E-01  0.25000E-01