TITLE = "FP Points"
VARIABLES = "x","y","z"
ZONE I=2880,J=2,K=1, DATAPACKING=POINT
  0.18350E+01  0.10004E-01  0.56351E-02
  0.19070E+01  0.10004E-01  0.56351E-02
  0.19790E+01  0.10004E-01  0.56351E-02
  0.18350E+01  0.10016E-01  0.56351E-02
  0.19070E+01  0.10016E-01  0.56351E-02
  0.19790E+01  0.10016E-01  0.56351E-02
  0.18350E+01  0.10028E-01  0.56351E-02
  0.19070E+01  0.10028E-01  0.56351E-02
  0.19790E+01  0.10028E-01  0.56351E-02
  0.18350E+01  0.10004E-01  0.25000E-01
  0.19070E+01  0.10004E-01  0.25000E-01
  0.19790E+01  0.10004E-01  0.25000E-01
  0.18350E+01  0.10016E-01  0.25000E-01
  0.19070E+01  0.10016E-01  0.25000E-01
  0.19790E+01  0.10016E-01  0.25000E-01
  0.18350E+01  0.10028E-01  0.25000E-01
  0.19070E+01  0.10028E-01  0.25000E-01
  0.19790E+01  0.10028E-01  0.25000E-01
  0.18350E+01  0.10004E-01  0.44365E-01
  0.19070E+01  0.10004E-01  0.44365E-01
  0.19790E+01  0.10004E-01  0.44365E-01
  0.18350E+01  0.10016E-01  0.44365E-01
  0.19070E+01  0.10016E-01  0.44365E-01
  0.19790E+01  0.10016E-01  0.44365E-01
  0.18350E+01  0.10028E-01  0.44365E-01
  0.19070E+01  0.10028E-01  0.44365E-01
  0.19790E+01  0.10028E-01  0.44365E-01
  0.18350E+01  0.10004E-01  0.55635E-01
  0.19070E+01  0.10004E-01  0.55635E-01
  0.19790E+01  0.10004E-01  0.55635E-01
  0.18350E+01  0.10016E-01  0.55635E-01
  0.19070E+01  0.10016E-01  0.55635E-01
  0.19790E+01  0.10016E-01  0.55635E-01
  0.18350E+01  0.10028E-01  0.55635E-01
  0.19070E+01  0.10028E-01  0.55635E-01
  0.19790E+01  0.10028E-01  0.55635E-01
  0.18350E+01  0.10004E-01  0.75000E-01
  0.19070E+01  0.10004E-01  0.75000E-01
  0.19790E+01  0.10004E-01  0.75000E-01
  0.18350E+01  0.10016E-01  0.75000E-01
  0.19070E+01  0.10016E-01  0.75000E-01
  0.19790E+01  0.10016E-01  0.75000E-01
  0.18350E+01  0.10028E-01  0.75000E-01
  0.19070E+01  0.10028E-01  0.75000E-01
  0.19790E+01  0.10028E-01  0.75000E-01
  0.18350E+01  0.10004E-01  0.94365E-01
  0.19070E+01  0.10004E-01  0.94365E-01
  0.19790E+01  0.10004E-01  0.94365E-01
  0.18350E+01  0.10016E-01  0.94365E-01
  0.19070E+01  0.10016E-01  0.94365E-01
  0.19790E+01  0.10016E-01  0.94365E-01
  0.18350E+01  0.10028E-01  0.94365E-01
  0.19070E+01  0.10028E-01  0.94365E-01
  0.19790E+01  0.10028E-01  0.94365E-01
  0.16641E+01  0.10004E-01  0.56351E-02
  0.17296E+01  0.10004E-01  0.56351E-02
  0.17950E+01  0.10004E-01  0.56351E-02
  0.16641E+01  0.10016E-01  0.56351E-02
  0.17296E+01  0.10016E-01  0.56351E-02
  0.17950E+01  0.10016E-01  0.56351E-02
  0.16641E+01  0.10028E-01  0.56351E-02
  0.17296E+01  0.10028E-01  0.56351E-02
  0.17950E+01  0.10028E-01  0.56351E-02
  0.16641E+01  0.10004E-01  0.25000E-01
  0.17296E+01  0.10004E-01  0.25000E-01
  0.17950E+01  0.10004E-01  0.25000E-01
  0.16641E+01  0.10016E-01  0.25000E-01
  0.17296E+01  0.10016E-01  0.25000E-01
  0.17950E+01  0.10016E-01  0.25000E-01
  0.16641E+01  0.10028E-01  0.25000E-01
  0.17296E+01  0.10028E-01  0.25000E-01
  0.17950E+01  0.10028E-01  0.25000E-01
  0.16641E+01  0.10004E-01  0.44365E-01
  0.17296E+01  0.10004E-01  0.44365E-01
  0.17950E+01  0.10004E-01  0.44365E-01
  0.16641E+01  0.10016E-01  0.44365E-01
  0.17296E+01  0.10016E-01  0.44365E-01
  0.17950E+01  0.10016E-01  0.44365E-01
  0.16641E+01  0.10028E-01  0.44365E-01
  0.17296E+01  0.10028E-01  0.44365E-01
  0.17950E+01  0.10028E-01  0.44365E-01
  0.16641E+01  0.10004E-01  0.55635E-01
  0.17296E+01  0.10004E-01  0.55635E-01
  0.17950E+01  0.10004E-01  0.55635E-01
  0.16641E+01  0.10016E-01  0.55635E-01
  0.17296E+01  0.10016E-01  0.55635E-01
  0.17950E+01  0.10016E-01  0.55635E-01
  0.16641E+01  0.10028E-01  0.55635E-01
  0.17296E+01  0.10028E-01  0.55635E-01
  0.17950E+01  0.10028E-01  0.55635E-01
  0.16641E+01  0.10004E-01  0.75000E-01
  0.17296E+01  0.10004E-01  0.75000E-01
  0.17950E+01  0.10004E-01  0.75000E-01
  0.16641E+01  0.10016E-01  0.75000E-01
  0.17296E+01  0.10016E-01  0.75000E-01
  0.17950E+01  0.10016E-01  0.75000E-01
  0.16641E+01  0.10028E-01  0.75000E-01
  0.17296E+01  0.10028E-01  0.75000E-01
  0.17950E+01  0.10028E-01  0.75000E-01
  0.16641E+01  0.10004E-01  0.94365E-01
  0.17296E+01  0.10004E-01  0.94365E-01
  0.17950E+01  0.10004E-01  0.94365E-01
  0.16641E+01  0.10016E-01  0.94365E-01
  0.17296E+01  0.10016E-01  0.94365E-01
  0.17950E+01  0.10016E-01  0.94365E-01
  0.16641E+01  0.10028E-01  0.94365E-01
  0.17296E+01  0.10028E-01  0.94365E-01
  0.17950E+01  0.10028E-01  0.94365E-01
  0.15087E+01  0.10004E-01  0.56351E-02
  0.15682E+01  0.10004E-01  0.56351E-02
  0.16277E+01  0.10004E-01  0.56351E-02
  0.15087E+01  0.10016E-01  0.56351E-02
  0.15682E+01  0.10016E-01  0.56351E-02
  0.16277E+01  0.10016E-01  0.56351E-02
  0.15087E+01  0.10028E-01  0.56351E-02
  0.15682E+01  0.10028E-01  0.56351E-02
  0.16277E+01  0.10028E-01  0.56351E-02
  0.15087E+01  0.10004E-01  0.25000E-01
  0.15682E+01  0.10004E-01  0.25000E-01
  0.16277E+01  0.10004E-01  0.25000E-01
  0.15087E+01  0.10016E-01  0.25000E-01
  0.15682E+01  0.10016E-01  0.25000E-01
  0.16277E+01  0.10016E-01  0.25000E-01
  0.15087E+01  0.10028E-01  0.25000E-01
  0.15682E+01  0.10028E-01  0.25000E-01
  0.16277E+01  0.10028E-01  0.25000E-01
  0.15087E+01  0.10004E-01  0.44365E-01
  0.15682E+01  0.10004E-01  0.44365E-01
  0.16277E+01  0.10004E-01  0.44365E-01
  0.15087E+01  0.10016E-01  0.44365E-01
  0.15682E+01  0.10016E-01  0.44365E-01
  0.16277E+01  0.10016E-01  0.44365E-01
  0.15087E+01  0.10028E-01  0.44365E-01
  0.15682E+01  0.10028E-01  0.44365E-01
  0.16277E+01  0.10028E-01  0.44365E-01
  0.15087E+01  0.10004E-01  0.55635E-01
  0.15682E+01  0.10004E-01  0.55635E-01
  0.16277E+01  0.10004E-01  0.55635E-01
  0.15087E+01  0.10016E-01  0.55635E-01
  0.15682E+01  0.10016E-01  0.55635E-01
  0.16277E+01  0.10016E-01  0.55635E-01
  0.15087E+01  0.10028E-01  0.55635E-01
  0.15682E+01  0.10028E-01  0.55635E-01
  0.16277E+01  0.10028E-01  0.55635E-01
  0.15087E+01  0.10004E-01  0.75000E-01
  0.15682E+01  0.10004E-01  0.75000E-01
  0.16277E+01  0.10004E-01  0.75000E-01
  0.15087E+01  0.10016E-01  0.75000E-01
  0.15682E+01  0.10016E-01  0.75000E-01
  0.16277E+01  0.10016E-01  0.75000E-01
  0.15087E+01  0.10028E-01  0.75000E-01
  0.15682E+01  0.10028E-01  0.75000E-01
  0.16277E+01  0.10028E-01  0.75000E-01
  0.15087E+01  0.10004E-01  0.94365E-01
  0.15682E+01  0.10004E-01  0.94365E-01
  0.16277E+01  0.10004E-01  0.94365E-01
  0.15087E+01  0.10016E-01  0.94365E-01
  0.15682E+01  0.10016E-01  0.94365E-01
  0.16277E+01  0.10016E-01  0.94365E-01
  0.15087E+01  0.10028E-01  0.94365E-01
  0.15682E+01  0.10028E-01  0.94365E-01
  0.16277E+01  0.10028E-01  0.94365E-01
  0.13674E+01  0.10004E-01  0.56351E-02
  0.14215E+01  0.10004E-01  0.56351E-02
  0.14756E+01  0.10004E-01  0.56351E-02
  0.13674E+01  0.10016E-01  0.56351E-02
  0.14215E+01  0.10016E-01  0.56351E-02
  0.14756E+01  0.10016E-01  0.56351E-02
  0.13674E+01  0.10028E-01  0.56351E-02
  0.14215E+01  0.10028E-01  0.56351E-02
  0.14756E+01  0.10028E-01  0.56351E-02
  0.13674E+01  0.10004E-01  0.25000E-01
  0.14215E+01  0.10004E-01  0.25000E-01
  0.14756E+01  0.10004E-01  0.25000E-01
  0.13674E+01  0.10016E-01  0.25000E-01
  0.14215E+01  0.10016E-01  0.25000E-01
  0.14756E+01  0.10016E-01  0.25000E-01
  0.13674E+01  0.10028E-01  0.25000E-01
  0.14215E+01  0.10028E-01  0.25000E-01
  0.14756E+01  0.10028E-01  0.25000E-01
  0.13674E+01  0.10004E-01  0.44365E-01
  0.14215E+01  0.10004E-01  0.44365E-01
  0.14756E+01  0.10004E-01  0.44365E-01
  0.13674E+01  0.10016E-01  0.44365E-01
  0.14215E+01  0.10016E-01  0.44365E-01
  0.14756E+01  0.10016E-01  0.44365E-01
  0.13674E+01  0.10028E-01  0.44365E-01
  0.14215E+01  0.10028E-01  0.44365E-01
  0.14756E+01  0.10028E-01  0.44365E-01
  0.13674E+01  0.10004E-01  0.55635E-01
  0.14215E+01  0.10004E-01  0.55635E-01
  0.14756E+01  0.10004E-01  0.55635E-01
  0.13674E+01  0.10016E-01  0.55635E-01
  0.14215E+01  0.10016E-01  0.55635E-01
  0.14756E+01  0.10016E-01  0.55635E-01
  0.13674E+01  0.10028E-01  0.55635E-01
  0.14215E+01  0.10028E-01  0.55635E-01
  0.14756E+01  0.10028E-01  0.55635E-01
  0.13674E+01  0.10004E-01  0.75000E-01
  0.14215E+01  0.10004E-01  0.75000E-01
  0.14756E+01  0.10004E-01  0.75000E-01
  0.13674E+01  0.10016E-01  0.75000E-01
  0.14215E+01  0.10016E-01  0.75000E-01
  0.14756E+01  0.10016E-01  0.75000E-01
  0.13674E+01  0.10028E-01  0.75000E-01
  0.14215E+01  0.10028E-01  0.75000E-01
  0.14756E+01  0.10028E-01  0.75000E-01
  0.13674E+01  0.10004E-01  0.94365E-01
  0.14215E+01  0.10004E-01  0.94365E-01
  0.14756E+01  0.10004E-01  0.94365E-01
  0.13674E+01  0.10016E-01  0.94365E-01
  0.14215E+01  0.10016E-01  0.94365E-01
  0.14756E+01  0.10016E-01  0.94365E-01
  0.13674E+01  0.10028E-01  0.94365E-01
  0.14215E+01  0.10028E-01  0.94365E-01
  0.14756E+01  0.10028E-01  0.94365E-01
  0.12390E+01  0.10004E-01  0.56351E-02
  0.12882E+01  0.10004E-01  0.56351E-02
  0.13374E+01  0.10004E-01  0.56351E-02
  0.12390E+01  0.10016E-01  0.56351E-02
  0.12882E+01  0.10016E-01  0.56351E-02
  0.13374E+01  0.10016E-01  0.56351E-02
  0.12390E+01  0.10028E-01  0.56351E-02
  0.12882E+01  0.10028E-01  0.56351E-02
  0.13374E+01  0.10028E-01  0.56351E-02
  0.12390E+01  0.10004E-01  0.25000E-01
  0.12882E+01  0.10004E-01  0.25000E-01
  0.13374E+01  0.10004E-01  0.25000E-01
  0.12390E+01  0.10016E-01  0.25000E-01
  0.12882E+01  0.10016E-01  0.25000E-01
  0.13374E+01  0.10016E-01  0.25000E-01
  0.12390E+01  0.10028E-01  0.25000E-01
  0.12882E+01  0.10028E-01  0.25000E-01
  0.13374E+01  0.10028E-01  0.25000E-01
  0.12390E+01  0.10004E-01  0.44365E-01
  0.12882E+01  0.10004E-01  0.44365E-01
  0.13374E+01  0.10004E-01  0.44365E-01
  0.12390E+01  0.10016E-01  0.44365E-01
  0.12882E+01  0.10016E-01  0.44365E-01
  0.13374E+01  0.10016E-01  0.44365E-01
  0.12390E+01  0.10028E-01  0.44365E-01
  0.12882E+01  0.10028E-01  0.44365E-01
  0.13374E+01  0.10028E-01  0.44365E-01
  0.12390E+01  0.10004E-01  0.55635E-01
  0.12882E+01  0.10004E-01  0.55635E-01
  0.13374E+01  0.10004E-01  0.55635E-01
  0.12390E+01  0.10016E-01  0.55635E-01
  0.12882E+01  0.10016E-01  0.55635E-01
  0.13374E+01  0.10016E-01  0.55635E-01
  0.12390E+01  0.10028E-01  0.55635E-01
  0.12882E+01  0.10028E-01  0.55635E-01
  0.13374E+01  0.10028E-01  0.55635E-01
  0.12390E+01  0.10004E-01  0.75000E-01
  0.12882E+01  0.10004E-01  0.75000E-01
  0.13374E+01  0.10004E-01  0.75000E-01
  0.12390E+01  0.10016E-01  0.75000E-01
  0.12882E+01  0.10016E-01  0.75000E-01
  0.13374E+01  0.10016E-01  0.75000E-01
  0.12390E+01  0.10028E-01  0.75000E-01
  0.12882E+01  0.10028E-01  0.75000E-01
  0.13374E+01  0.10028E-01  0.75000E-01
  0.12390E+01  0.10004E-01  0.94365E-01
  0.12882E+01  0.10004E-01  0.94365E-01
  0.13374E+01  0.10004E-01  0.94365E-01
  0.12390E+01  0.10016E-01  0.94365E-01
  0.12882E+01  0.10016E-01  0.94365E-01
  0.13374E+01  0.10016E-01  0.94365E-01
  0.12390E+01  0.10028E-01  0.94365E-01
  0.12882E+01  0.10028E-01  0.94365E-01
  0.13374E+01  0.10028E-01  0.94365E-01
  0.11223E+01  0.10004E-01  0.56351E-02
  0.11670E+01  0.10004E-01  0.56351E-02
  0.12117E+01  0.10004E-01  0.56351E-02
  0.11223E+01  0.10016E-01  0.56351E-02
  0.11670E+01  0.10016E-01  0.56351E-02
  0.12117E+01  0.10016E-01  0.56351E-02
  0.11223E+01  0.10028E-01  0.56351E-02
  0.11670E+01  0.10028E-01  0.56351E-02
  0.12117E+01  0.10028E-01  0.56351E-02
  0.11223E+01  0.10004E-01  0.25000E-01
  0.11670E+01  0.10004E-01  0.25000E-01
  0.12117E+01  0.10004E-01  0.25000E-01
  0.11223E+01  0.10016E-01  0.25000E-01
  0.11670E+01  0.10016E-01  0.25000E-01
  0.12117E+01  0.10016E-01  0.25000E-01
  0.11223E+01  0.10028E-01  0.25000E-01
  0.11670E+01  0.10028E-01  0.25000E-01
  0.12117E+01  0.10028E-01  0.25000E-01
  0.11223E+01  0.10004E-01  0.44365E-01
  0.11670E+01  0.10004E-01  0.44365E-01
  0.12117E+01  0.10004E-01  0.44365E-01
  0.11223E+01  0.10016E-01  0.44365E-01
  0.11670E+01  0.10016E-01  0.44365E-01
  0.12117E+01  0.10016E-01  0.44365E-01
  0.11223E+01  0.10028E-01  0.44365E-01
  0.11670E+01  0.10028E-01  0.44365E-01
  0.12117E+01  0.10028E-01  0.44365E-01
  0.11223E+01  0.10004E-01  0.55635E-01
  0.11670E+01  0.10004E-01  0.55635E-01
  0.12117E+01  0.10004E-01  0.55635E-01
  0.11223E+01  0.10016E-01  0.55635E-01
  0.11670E+01  0.10016E-01  0.55635E-01
  0.12117E+01  0.10016E-01  0.55635E-01
  0.11223E+01  0.10028E-01  0.55635E-01
  0.11670E+01  0.10028E-01  0.55635E-01
  0.12117E+01  0.10028E-01  0.55635E-01
  0.11223E+01  0.10004E-01  0.75000E-01
  0.11670E+01  0.10004E-01  0.75000E-01
  0.12117E+01  0.10004E-01  0.75000E-01
  0.11223E+01  0.10016E-01  0.75000E-01
  0.11670E+01  0.10016E-01  0.75000E-01
  0.12117E+01  0.10016E-01  0.75000E-01
  0.11223E+01  0.10028E-01  0.75000E-01
  0.11670E+01  0.10028E-01  0.75000E-01
  0.12117E+01  0.10028E-01  0.75000E-01
  0.11223E+01  0.10004E-01  0.94365E-01
  0.11670E+01  0.10004E-01  0.94365E-01
  0.12117E+01  0.10004E-01  0.94365E-01
  0.11223E+01  0.10016E-01  0.94365E-01
  0.11670E+01  0.10016E-01  0.94365E-01
  0.12117E+01  0.10016E-01  0.94365E-01
  0.11223E+01  0.10028E-01  0.94365E-01
  0.11670E+01  0.10028E-01  0.94365E-01
  0.12117E+01  0.10028E-01  0.94365E-01
  0.10161E+01  0.10004E-01  0.56351E-02
  0.10568E+01  0.10004E-01  0.56351E-02
  0.10974E+01  0.10004E-01  0.56351E-02
  0.10161E+01  0.10016E-01  0.56351E-02
  0.10568E+01  0.10016E-01  0.56351E-02
  0.10974E+01  0.10016E-01  0.56351E-02
  0.10161E+01  0.10028E-01  0.56351E-02
  0.10568E+01  0.10028E-01  0.56351E-02
  0.10974E+01  0.10028E-01  0.56351E-02
  0.10161E+01  0.10004E-01  0.25000E-01
  0.10568E+01  0.10004E-01  0.25000E-01
  0.10974E+01  0.10004E-01  0.25000E-01
  0.10161E+01  0.10016E-01  0.25000E-01
  0.10568E+01  0.10016E-01  0.25000E-01
  0.10974E+01  0.10016E-01  0.25000E-01
  0.10161E+01  0.10028E-01  0.25000E-01
  0.10568E+01  0.10028E-01  0.25000E-01
  0.10974E+01  0.10028E-01  0.25000E-01
  0.10161E+01  0.10004E-01  0.44365E-01
  0.10568E+01  0.10004E-01  0.44365E-01
  0.10974E+01  0.10004E-01  0.44365E-01
  0.10161E+01  0.10016E-01  0.44365E-01
  0.10568E+01  0.10016E-01  0.44365E-01
  0.10974E+01  0.10016E-01  0.44365E-01
  0.10161E+01  0.10028E-01  0.44365E-01
  0.10568E+01  0.10028E-01  0.44365E-01
  0.10974E+01  0.10028E-01  0.44365E-01
  0.10161E+01  0.10004E-01  0.55635E-01
  0.10568E+01  0.10004E-01  0.55635E-01
  0.10974E+01  0.10004E-01  0.55635E-01
  0.10161E+01  0.10016E-01  0.55635E-01
  0.10568E+01  0.10016E-01  0.55635E-01
  0.10974E+01  0.10016E-01  0.55635E-01
  0.10161E+01  0.10028E-01  0.55635E-01
  0.10568E+01  0.10028E-01  0.55635E-01
  0.10974E+01  0.10028E-01  0.55635E-01
  0.10161E+01  0.10004E-01  0.75000E-01
  0.10568E+01  0.10004E-01  0.75000E-01
  0.10974E+01  0.10004E-01  0.75000E-01
  0.10161E+01  0.10016E-01  0.75000E-01
  0.10568E+01  0.10016E-01  0.75000E-01
  0.10974E+01  0.10016E-01  0.75000E-01
  0.10161E+01  0.10028E-01  0.75000E-01
  0.10568E+01  0.10028E-01  0.75000E-01
  0.10974E+01  0.10028E-01  0.75000E-01
  0.10161E+01  0.10004E-01  0.94365E-01
  0.10568E+01  0.10004E-01  0.94365E-01
  0.10974E+01  0.10004E-01  0.94365E-01
  0.10161E+01  0.10016E-01  0.94365E-01
  0.10568E+01  0.10016E-01  0.94365E-01
  0.10974E+01  0.10016E-01  0.94365E-01
  0.10161E+01  0.10028E-01  0.94365E-01
  0.10568E+01  0.10028E-01  0.94365E-01
  0.10974E+01  0.10028E-01  0.94365E-01
  0.91966E+00  0.10004E-01  0.56351E-02
  0.95661E+00  0.10004E-01  0.56351E-02
  0.99356E+00  0.10004E-01  0.56351E-02
  0.91966E+00  0.10016E-01  0.56351E-02
  0.95661E+00  0.10016E-01  0.56351E-02
  0.99356E+00  0.10016E-01  0.56351E-02
  0.91966E+00  0.10028E-01  0.56351E-02
  0.95661E+00  0.10028E-01  0.56351E-02
  0.99356E+00  0.10028E-01  0.56351E-02
  0.91966E+00  0.10004E-01  0.25000E-01
  0.95661E+00  0.10004E-01  0.25000E-01
  0.99356E+00  0.10004E-01  0.25000E-01
  0.91966E+00  0.10016E-01  0.25000E-01
  0.95661E+00  0.10016E-01  0.25000E-01
  0.99356E+00  0.10016E-01  0.25000E-01
  0.91966E+00  0.10028E-01  0.25000E-01
  0.95661E+00  0.10028E-01  0.25000E-01
  0.99356E+00  0.10028E-01  0.25000E-01
  0.91966E+00  0.10004E-01  0.44365E-01
  0.95661E+00  0.10004E-01  0.44365E-01
  0.99356E+00  0.10004E-01  0.44365E-01
  0.91966E+00  0.10016E-01  0.44365E-01
  0.95661E+00  0.10016E-01  0.44365E-01
  0.99356E+00  0.10016E-01  0.44365E-01
  0.91966E+00  0.10028E-01  0.44365E-01
  0.95661E+00  0.10028E-01  0.44365E-01
  0.99356E+00  0.10028E-01  0.44365E-01
  0.91966E+00  0.10004E-01  0.55635E-01
  0.95661E+00  0.10004E-01  0.55635E-01
  0.99356E+00  0.10004E-01  0.55635E-01
  0.91966E+00  0.10016E-01  0.55635E-01
  0.95661E+00  0.10016E-01  0.55635E-01
  0.99356E+00  0.10016E-01  0.55635E-01
  0.91966E+00  0.10028E-01  0.55635E-01
  0.95661E+00  0.10028E-01  0.55635E-01
  0.99356E+00  0.10028E-01  0.55635E-01
  0.91966E+00  0.10004E-01  0.75000E-01
  0.95661E+00  0.10004E-01  0.75000E-01
  0.99356E+00  0.10004E-01  0.75000E-01
  0.91966E+00  0.10016E-01  0.75000E-01
  0.95661E+00  0.10016E-01  0.75000E-01
  0.99356E+00  0.10016E-01  0.75000E-01
  0.91966E+00  0.10028E-01  0.75000E-01
  0.95661E+00  0.10028E-01  0.75000E-01
  0.99356E+00  0.10028E-01  0.75000E-01
  0.91966E+00  0.10004E-01  0.94365E-01
  0.95661E+00  0.10004E-01  0.94365E-01
  0.99356E+00  0.10004E-01  0.94365E-01
  0.91966E+00  0.10016E-01  0.94365E-01
  0.95661E+00  0.10016E-01  0.94365E-01
  0.99356E+00  0.10016E-01  0.94365E-01
  0.91966E+00  0.10028E-01  0.94365E-01
  0.95661E+00  0.10028E-01  0.94365E-01
  0.99356E+00  0.10028E-01  0.94365E-01
  0.83195E+00  0.10004E-01  0.56351E-02
  0.86554E+00  0.10004E-01  0.56351E-02
  0.89913E+00  0.10004E-01  0.56351E-02
  0.83195E+00  0.10016E-01  0.56351E-02
  0.86554E+00  0.10016E-01  0.56351E-02
  0.89913E+00  0.10016E-01  0.56351E-02
  0.83195E+00  0.10028E-01  0.56351E-02
  0.86554E+00  0.10028E-01  0.56351E-02
  0.89913E+00  0.10028E-01  0.56351E-02
  0.83195E+00  0.10004E-01  0.25000E-01
  0.86554E+00  0.10004E-01  0.25000E-01
  0.89913E+00  0.10004E-01  0.25000E-01
  0.83195E+00  0.10016E-01  0.25000E-01
  0.86554E+00  0.10016E-01  0.25000E-01
  0.89913E+00  0.10016E-01  0.25000E-01
  0.83195E+00  0.10028E-01  0.25000E-01
  0.86554E+00  0.10028E-01  0.25000E-01
  0.89913E+00  0.10028E-01  0.25000E-01
  0.83195E+00  0.10004E-01  0.44365E-01
  0.86554E+00  0.10004E-01  0.44365E-01
  0.89913E+00  0.10004E-01  0.44365E-01
  0.83195E+00  0.10016E-01  0.44365E-01
  0.86554E+00  0.10016E-01  0.44365E-01
  0.89913E+00  0.10016E-01  0.44365E-01
  0.83195E+00  0.10028E-01  0.44365E-01
  0.86554E+00  0.10028E-01  0.44365E-01
  0.89913E+00  0.10028E-01  0.44365E-01
  0.83195E+00  0.10004E-01  0.55635E-01
  0.86554E+00  0.10004E-01  0.55635E-01
  0.89913E+00  0.10004E-01  0.55635E-01
  0.83195E+00  0.10016E-01  0.55635E-01
  0.86554E+00  0.10016E-01  0.55635E-01
  0.89913E+00  0.10016E-01  0.55635E-01
  0.83195E+00  0.10028E-01  0.55635E-01
  0.86554E+00  0.10028E-01  0.55635E-01
  0.89913E+00  0.10028E-01  0.55635E-01
  0.83195E+00  0.10004E-01  0.75000E-01
  0.86554E+00  0.10004E-01  0.75000E-01
  0.89913E+00  0.10004E-01  0.75000E-01
  0.83195E+00  0.10016E-01  0.75000E-01
  0.86554E+00  0.10016E-01  0.75000E-01
  0.89913E+00  0.10016E-01  0.75000E-01
  0.83195E+00  0.10028E-01  0.75000E-01
  0.86554E+00  0.10028E-01  0.75000E-01
  0.89913E+00  0.10028E-01  0.75000E-01
  0.83195E+00  0.10004E-01  0.94365E-01
  0.86554E+00  0.10004E-01  0.94365E-01
  0.89913E+00  0.10004E-01  0.94365E-01
  0.83195E+00  0.10016E-01  0.94365E-01
  0.86554E+00  0.10016E-01  0.94365E-01
  0.89913E+00  0.10016E-01  0.94365E-01
  0.83195E+00  0.10028E-01  0.94365E-01
  0.86554E+00  0.10028E-01  0.94365E-01
  0.89913E+00  0.10028E-01  0.94365E-01
  0.75221E+00  0.10004E-01  0.56351E-02
  0.78275E+00  0.10004E-01  0.56351E-02
  0.81328E+00  0.10004E-01  0.56351E-02
  0.75221E+00  0.10016E-01  0.56351E-02
  0.78275E+00  0.10016E-01  0.56351E-02
  0.81328E+00  0.10016E-01  0.56351E-02
  0.75221E+00  0.10028E-01  0.56351E-02
  0.78275E+00  0.10028E-01  0.56351E-02
  0.81328E+00  0.10028E-01  0.56351E-02
  0.75221E+00  0.10004E-01  0.25000E-01
  0.78275E+00  0.10004E-01  0.25000E-01
  0.81328E+00  0.10004E-01  0.25000E-01
  0.75221E+00  0.10016E-01  0.25000E-01
  0.78275E+00  0.10016E-01  0.25000E-01
  0.81328E+00  0.10016E-01  0.25000E-01
  0.75221E+00  0.10028E-01  0.25000E-01
  0.78275E+00  0.10028E-01  0.25000E-01
  0.81328E+00  0.10028E-01  0.25000E-01
  0.75221E+00  0.10004E-01  0.44365E-01
  0.78275E+00  0.10004E-01  0.44365E-01
  0.81328E+00  0.10004E-01  0.44365E-01
  0.75221E+00  0.10016E-01  0.44365E-01
  0.78275E+00  0.10016E-01  0.44365E-01
  0.81328E+00  0.10016E-01  0.44365E-01
  0.75221E+00  0.10028E-01  0.44365E-01
  0.78275E+00  0.10028E-01  0.44365E-01
  0.81328E+00  0.10028E-01  0.44365E-01
  0.75221E+00  0.10004E-01  0.55635E-01
  0.78275E+00  0.10004E-01  0.55635E-01
  0.81328E+00  0.10004E-01  0.55635E-01
  0.75221E+00  0.10016E-01  0.55635E-01
  0.78275E+00  0.10016E-01  0.55635E-01
  0.81328E+00  0.10016E-01  0.55635E-01
  0.75221E+00  0.10028E-01  0.55635E-01
  0.78275E+00  0.10028E-01  0.55635E-01
  0.81328E+00  0.10028E-01  0.55635E-01
  0.75221E+00  0.10004E-01  0.75000E-01
  0.78275E+00  0.10004E-01  0.75000E-01
  0.81328E+00  0.10004E-01  0.75000E-01
  0.75221E+00  0.10016E-01  0.75000E-01
  0.78275E+00  0.10016E-01  0.75000E-01
  0.81328E+00  0.10016E-01  0.75000E-01
  0.75221E+00  0.10028E-01  0.75000E-01
  0.78275E+00  0.10028E-01  0.75000E-01
  0.81328E+00  0.10028E-01  0.75000E-01
  0.75221E+00  0.10004E-01  0.94365E-01
  0.78275E+00  0.10004E-01  0.94365E-01
  0.81328E+00  0.10004E-01  0.94365E-01
  0.75221E+00  0.10016E-01  0.94365E-01
  0.78275E+00  0.10016E-01  0.94365E-01
  0.81328E+00  0.10016E-01  0.94365E-01
  0.75221E+00  0.10028E-01  0.94365E-01
  0.78275E+00  0.10028E-01  0.94365E-01
  0.81328E+00  0.10028E-01  0.94365E-01
  0.67972E+00  0.10004E-01  0.56351E-02
  0.70748E+00  0.10004E-01  0.56351E-02
  0.73524E+00  0.10004E-01  0.56351E-02
  0.67972E+00  0.10016E-01  0.56351E-02
  0.70748E+00  0.10016E-01  0.56351E-02
  0.73524E+00  0.10016E-01  0.56351E-02
  0.67972E+00  0.10028E-01  0.56351E-02
  0.70748E+00  0.10028E-01  0.56351E-02
  0.73524E+00  0.10028E-01  0.56351E-02
  0.67972E+00  0.10004E-01  0.25000E-01
  0.70748E+00  0.10004E-01  0.25000E-01
  0.73524E+00  0.10004E-01  0.25000E-01
  0.67972E+00  0.10016E-01  0.25000E-01
  0.70748E+00  0.10016E-01  0.25000E-01
  0.73524E+00  0.10016E-01  0.25000E-01
  0.67972E+00  0.10028E-01  0.25000E-01
  0.70748E+00  0.10028E-01  0.25000E-01
  0.73524E+00  0.10028E-01  0.25000E-01
  0.67972E+00  0.10004E-01  0.44365E-01
  0.70748E+00  0.10004E-01  0.44365E-01
  0.73524E+00  0.10004E-01  0.44365E-01
  0.67972E+00  0.10016E-01  0.44365E-01
  0.70748E+00  0.10016E-01  0.44365E-01
  0.73524E+00  0.10016E-01  0.44365E-01
  0.67972E+00  0.10028E-01  0.44365E-01
  0.70748E+00  0.10028E-01  0.44365E-01
  0.73524E+00  0.10028E-01  0.44365E-01
  0.67972E+00  0.10004E-01  0.55635E-01
  0.70748E+00  0.10004E-01  0.55635E-01
  0.73524E+00  0.10004E-01  0.55635E-01
  0.67972E+00  0.10016E-01  0.55635E-01
  0.70748E+00  0.10016E-01  0.55635E-01
  0.73524E+00  0.10016E-01  0.55635E-01
  0.67972E+00  0.10028E-01  0.55635E-01
  0.70748E+00  0.10028E-01  0.55635E-01
  0.73524E+00  0.10028E-01  0.55635E-01
  0.67972E+00  0.10004E-01  0.75000E-01
  0.70748E+00  0.10004E-01  0.75000E-01
  0.73524E+00  0.10004E-01  0.75000E-01
  0.67972E+00  0.10016E-01  0.75000E-01
  0.70748E+00  0.10016E-01  0.75000E-01
  0.73524E+00  0.10016E-01  0.75000E-01
  0.67972E+00  0.10028E-01  0.75000E-01
  0.70748E+00  0.10028E-01  0.75000E-01
  0.73524E+00  0.10028E-01  0.75000E-01
  0.67972E+00  0.10004E-01  0.94365E-01
  0.70748E+00  0.10004E-01  0.94365E-01
  0.73524E+00  0.10004E-01  0.94365E-01
  0.67972E+00  0.10016E-01  0.94365E-01
  0.70748E+00  0.10016E-01  0.94365E-01
  0.73524E+00  0.10016E-01  0.94365E-01
  0.67972E+00  0.10028E-01  0.94365E-01
  0.70748E+00  0.10028E-01  0.94365E-01
  0.73524E+00  0.10028E-01  0.94365E-01
  0.61382E+00  0.10004E-01  0.56351E-02
  0.63905E+00  0.10004E-01  0.56351E-02
  0.66429E+00  0.10004E-01  0.56351E-02
  0.61382E+00  0.10016E-01  0.56351E-02
  0.63905E+00  0.10016E-01  0.56351E-02
  0.66429E+00  0.10016E-01  0.56351E-02
  0.61382E+00  0.10028E-01  0.56351E-02
  0.63905E+00  0.10028E-01  0.56351E-02
  0.66429E+00  0.10028E-01  0.56351E-02
  0.61382E+00  0.10004E-01  0.25000E-01
  0.63905E+00  0.10004E-01  0.25000E-01
  0.66429E+00  0.10004E-01  0.25000E-01
  0.61382E+00  0.10016E-01  0.25000E-01
  0.63905E+00  0.10016E-01  0.25000E-01
  0.66429E+00  0.10016E-01  0.25000E-01
  0.61382E+00  0.10028E-01  0.25000E-01
  0.63905E+00  0.10028E-01  0.25000E-01
  0.66429E+00  0.10028E-01  0.25000E-01
  0.61382E+00  0.10004E-01  0.44365E-01
  0.63905E+00  0.10004E-01  0.44365E-01
  0.66429E+00  0.10004E-01  0.44365E-01
  0.61382E+00  0.10016E-01  0.44365E-01
  0.63905E+00  0.10016E-01  0.44365E-01
  0.66429E+00  0.10016E-01  0.44365E-01
  0.61382E+00  0.10028E-01  0.44365E-01
  0.63905E+00  0.10028E-01  0.44365E-01
  0.66429E+00  0.10028E-01  0.44365E-01
  0.61382E+00  0.10004E-01  0.55635E-01
  0.63905E+00  0.10004E-01  0.55635E-01
  0.66429E+00  0.10004E-01  0.55635E-01
  0.61382E+00  0.10016E-01  0.55635E-01
  0.63905E+00  0.10016E-01  0.55635E-01
  0.66429E+00  0.10016E-01  0.55635E-01
  0.61382E+00  0.10028E-01  0.55635E-01
  0.63905E+00  0.10028E-01  0.55635E-01
  0.66429E+00  0.10028E-01  0.55635E-01
  0.61382E+00  0.10004E-01  0.75000E-01
  0.63905E+00  0.10004E-01  0.75000E-01
  0.66429E+00  0.10004E-01  0.75000E-01
  0.61382E+00  0.10016E-01  0.75000E-01
  0.63905E+00  0.10016E-01  0.75000E-01
  0.66429E+00  0.10016E-01  0.75000E-01
  0.61382E+00  0.10028E-01  0.75000E-01
  0.63905E+00  0.10028E-01  0.75000E-01
  0.66429E+00  0.10028E-01  0.75000E-01
  0.61382E+00  0.10004E-01  0.94365E-01
  0.63905E+00  0.10004E-01  0.94365E-01
  0.66429E+00  0.10004E-01  0.94365E-01
  0.61382E+00  0.10016E-01  0.94365E-01
  0.63905E+00  0.10016E-01  0.94365E-01
  0.66429E+00  0.10016E-01  0.94365E-01
  0.61382E+00  0.10028E-01  0.94365E-01
  0.63905E+00  0.10028E-01  0.94365E-01
  0.66429E+00  0.10028E-01  0.94365E-01
  0.55391E+00  0.10004E-01  0.56351E-02
  0.57685E+00  0.10004E-01  0.56351E-02
  0.59980E+00  0.10004E-01  0.56351E-02
  0.55391E+00  0.10016E-01  0.56351E-02
  0.57685E+00  0.10016E-01  0.56351E-02
  0.59980E+00  0.10016E-01  0.56351E-02
  0.55391E+00  0.10028E-01  0.56351E-02
  0.57685E+00  0.10028E-01  0.56351E-02
  0.59980E+00  0.10028E-01  0.56351E-02
  0.55391E+00  0.10004E-01  0.25000E-01
  0.57685E+00  0.10004E-01  0.25000E-01
  0.59980E+00  0.10004E-01  0.25000E-01
  0.55391E+00  0.10016E-01  0.25000E-01
  0.57685E+00  0.10016E-01  0.25000E-01
  0.59980E+00  0.10016E-01  0.25000E-01
  0.55391E+00  0.10028E-01  0.25000E-01
  0.57685E+00  0.10028E-01  0.25000E-01
  0.59980E+00  0.10028E-01  0.25000E-01
  0.55391E+00  0.10004E-01  0.44365E-01
  0.57685E+00  0.10004E-01  0.44365E-01
  0.59980E+00  0.10004E-01  0.44365E-01
  0.55391E+00  0.10016E-01  0.44365E-01
  0.57685E+00  0.10016E-01  0.44365E-01
  0.59980E+00  0.10016E-01  0.44365E-01
  0.55391E+00  0.10028E-01  0.44365E-01
  0.57685E+00  0.10028E-01  0.44365E-01
  0.59980E+00  0.10028E-01  0.44365E-01
  0.55391E+00  0.10004E-01  0.55635E-01
  0.57685E+00  0.10004E-01  0.55635E-01
  0.59980E+00  0.10004E-01  0.55635E-01
  0.55391E+00  0.10016E-01  0.55635E-01
  0.57685E+00  0.10016E-01  0.55635E-01
  0.59980E+00  0.10016E-01  0.55635E-01
  0.55391E+00  0.10028E-01  0.55635E-01
  0.57685E+00  0.10028E-01  0.55635E-01
  0.59980E+00  0.10028E-01  0.55635E-01
  0.55391E+00  0.10004E-01  0.75000E-01
  0.57685E+00  0.10004E-01  0.75000E-01
  0.59980E+00  0.10004E-01  0.75000E-01
  0.55391E+00  0.10016E-01  0.75000E-01
  0.57685E+00  0.10016E-01  0.75000E-01
  0.59980E+00  0.10016E-01  0.75000E-01
  0.55391E+00  0.10028E-01  0.75000E-01
  0.57685E+00  0.10028E-01  0.75000E-01
  0.59980E+00  0.10028E-01  0.75000E-01
  0.55391E+00  0.10004E-01  0.94365E-01
  0.57685E+00  0.10004E-01  0.94365E-01
  0.59980E+00  0.10004E-01  0.94365E-01
  0.55391E+00  0.10016E-01  0.94365E-01
  0.57685E+00  0.10016E-01  0.94365E-01
  0.59980E+00  0.10016E-01  0.94365E-01
  0.55391E+00  0.10028E-01  0.94365E-01
  0.57685E+00  0.10028E-01  0.94365E-01
  0.59980E+00  0.10028E-01  0.94365E-01
  0.49944E+00  0.10004E-01  0.56351E-02
  0.52030E+00  0.10004E-01  0.56351E-02
  0.54116E+00  0.10004E-01  0.56351E-02
  0.49944E+00  0.10016E-01  0.56351E-02
  0.52030E+00  0.10016E-01  0.56351E-02
  0.54116E+00  0.10016E-01  0.56351E-02
  0.49944E+00  0.10028E-01  0.56351E-02
  0.52030E+00  0.10028E-01  0.56351E-02
  0.54116E+00  0.10028E-01  0.56351E-02
  0.49944E+00  0.10004E-01  0.25000E-01
  0.52030E+00  0.10004E-01  0.25000E-01
  0.54116E+00  0.10004E-01  0.25000E-01
  0.49944E+00  0.10016E-01  0.25000E-01
  0.52030E+00  0.10016E-01  0.25000E-01
  0.54116E+00  0.10016E-01  0.25000E-01
  0.49944E+00  0.10028E-01  0.25000E-01
  0.52030E+00  0.10028E-01  0.25000E-01
  0.54116E+00  0.10028E-01  0.25000E-01
  0.49944E+00  0.10004E-01  0.44365E-01
  0.52030E+00  0.10004E-01  0.44365E-01
  0.54116E+00  0.10004E-01  0.44365E-01
  0.49944E+00  0.10016E-01  0.44365E-01
  0.52030E+00  0.10016E-01  0.44365E-01
  0.54116E+00  0.10016E-01  0.44365E-01
  0.49944E+00  0.10028E-01  0.44365E-01
  0.52030E+00  0.10028E-01  0.44365E-01
  0.54116E+00  0.10028E-01  0.44365E-01
  0.49944E+00  0.10004E-01  0.55635E-01
  0.52030E+00  0.10004E-01  0.55635E-01
  0.54116E+00  0.10004E-01  0.55635E-01
  0.49944E+00  0.10016E-01  0.55635E-01
  0.52030E+00  0.10016E-01  0.55635E-01
  0.54116E+00  0.10016E-01  0.55635E-01
  0.49944E+00  0.10028E-01  0.55635E-01
  0.52030E+00  0.10028E-01  0.55635E-01
  0.54116E+00  0.10028E-01  0.55635E-01
  0.49944E+00  0.10004E-01  0.75000E-01
  0.52030E+00  0.10004E-01  0.75000E-01
  0.54116E+00  0.10004E-01  0.75000E-01
  0.49944E+00  0.10016E-01  0.75000E-01
  0.52030E+00  0.10016E-01  0.75000E-01
  0.54116E+00  0.10016E-01  0.75000E-01
  0.49944E+00  0.10028E-01  0.75000E-01
  0.52030E+00  0.10028E-01  0.75000E-01
  0.54116E+00  0.10028E-01  0.75000E-01