TITLE = "FP Points"
VARIABLES = "x","y","z"
ZONE I=800,J=2,K=1, DATAPACKING=POINT
  0.18534E+01  0.10007E-01  0.10566E-01
  0.19607E+01  0.10007E-01  0.10566E-01
  0.18534E+01  0.10025E-01  0.10566E-01
  0.19607E+01  0.10025E-01  0.10566E-01
  0.18534E+01  0.10007E-01  0.39434E-01
  0.19607E+01  0.10007E-01  0.39434E-01
  0.18534E+01  0.10025E-01  0.39434E-01
  0.19607E+01  0.10025E-01  0.39434E-01
  0.18534E+01  0.10007E-01  0.60566E-01
  0.19607E+01  0.10007E-01  0.60566E-01
  0.18534E+01  0.10025E-01  0.60566E-01
  0.19607E+01  0.10025E-01  0.60566E-01
  0.18534E+01  0.10007E-01  0.89434E-01
  0.19607E+01  0.10007E-01  0.89434E-01
  0.18534E+01  0.10025E-01  0.89434E-01
  0.19607E+01  0.10025E-01  0.89434E-01
  0.16808E+01  0.10007E-01  0.10566E-01
  0.17784E+01  0.10007E-01  0.10566E-01
  0.16808E+01  0.10025E-01  0.10566E-01
  0.17784E+01  0.10025E-01  0.10566E-01
  0.16808E+01  0.10007E-01  0.39434E-01
  0.17784E+01  0.10007E-01  0.39434E-01
  0.16808E+01  0.10025E-01  0.39434E-01
  0.17784E+01  0.10025E-01  0.39434E-01
  0.16808E+01  0.10007E-01  0.60566E-01
  0.17784E+01  0.10007E-01  0.60566E-01
  0.16808E+01  0.10025E-01  0.60566E-01
  0.17784E+01  0.10025E-01  0.60566E-01
  0.16808E+01  0.10007E-01  0.89434E-01
  0.17784E+01  0.10007E-01  0.89434E-01
  0.16808E+01  0.10025E-01  0.89434E-01
  0.17784E+01  0.10025E-01  0.89434E-01
  0.15239E+01  0.10007E-01  0.10566E-01
  0.16126E+01  0.10007E-01  0.10566E-01
  0.15239E+01  0.10025E-01  0.10566E-01
  0.16126E+01  0.10025E-01  0.10566E-01
  0.15239E+01  0.10007E-01  0.39434E-01
  0.16126E+01  0.10007E-01  0.39434E-01
  0.15239E+01  0.10025E-01  0.39434E-01
  0.16126E+01  0.10025E-01  0.39434E-01
  0.15239E+01  0.10007E-01  0.60566E-01
  0.16126E+01  0.10007E-01  0.60566E-01
  0.15239E+01  0.10025E-01  0.60566E-01
  0.16126E+01  0.10025E-01  0.60566E-01
  0.15239E+01  0.10007E-01  0.89434E-01
  0.16126E+01  0.10007E-01  0.89434E-01
  0.15239E+01  0.10025E-01  0.89434E-01
  0.16126E+01  0.10025E-01  0.89434E-01
  0.13812E+01  0.10007E-01  0.10566E-01
  0.14619E+01  0.10007E-01  0.10566E-01
  0.13812E+01  0.10025E-01  0.10566E-01
  0.14619E+01  0.10025E-01  0.10566E-01
  0.13812E+01  0.10007E-01  0.39434E-01
  0.14619E+01  0.10007E-01  0.39434E-01
  0.13812E+01  0.10025E-01  0.39434E-01
  0.14619E+01  0.10025E-01  0.39434E-01
  0.13812E+01  0.10007E-01  0.60566E-01
  0.14619E+01  0.10007E-01  0.60566E-01
  0.13812E+01  0.10025E-01  0.60566E-01
  0.14619E+01  0.10025E-01  0.60566E-01
  0.13812E+01  0.10007E-01  0.89434E-01
  0.14619E+01  0.10007E-01  0.89434E-01
  0.13812E+01  0.10025E-01  0.89434E-01
  0.14619E+01  0.10025E-01  0.89434E-01
  0.12515E+01  0.10007E-01  0.10566E-01
  0.13249E+01  0.10007E-01  0.10566E-01
  0.12515E+01  0.10025E-01  0.10566E-01
  0.13249E+01  0.10025E-01  0.10566E-01
  0.12515E+01  0.10007E-01  0.39434E-01
  0.13249E+01  0.10007E-01  0.39434E-01
  0.12515E+01  0.10025E-01  0.39434E-01
  0.13249E+01  0.10025E-01  0.39434E-01
  0.12515E+01  0.10007E-01  0.60566E-01
  0.13249E+01  0.10007E-01  0.60566E-01
  0.12515E+01  0.10025E-01  0.60566E-01
  0.13249E+01  0.10025E-01  0.60566E-01
  0.12515E+01  0.10007E-01  0.89434E-01
  0.13249E+01  0.10007E-01  0.89434E-01
  0.12515E+01  0.10025E-01  0.89434E-01
  0.13249E+01  0.10025E-01  0.89434E-01
  0.11337E+01  0.10007E-01  0.10566E-01
  0.12003E+01  0.10007E-01  0.10566E-01
  0.11337E+01  0.10025E-01  0.10566E-01
  0.12003E+01  0.10025E-01  0.10566E-01
  0.11337E+01  0.10007E-01  0.39434E-01
  0.12003E+01  0.10007E-01  0.39434E-01
  0.11337E+01  0.10025E-01  0.39434E-01
  0.12003E+01  0.10025E-01  0.39434E-01
  0.11337E+01  0.10007E-01  0.60566E-01
  0.12003E+01  0.10007E-01  0.60566E-01
  0.11337E+01  0.10025E-01  0.60566E-01
  0.12003E+01  0.10025E-01  0.60566E-01
  0.11337E+01  0.10007E-01  0.89434E-01
  0.12003E+01  0.10007E-01  0.89434E-01
  0.11337E+01  0.10025E-01  0.89434E-01
  0.12003E+01  0.10025E-01  0.89434E-01
  0.10265E+01  0.10007E-01  0.10566E-01
  0.10871E+01  0.10007E-01  0.10566E-01
  0.10265E+01  0.10025E-01  0.10566E-01
  0.10871E+01  0.10025E-01  0.10566E-01
  0.10265E+01  0.10007E-01  0.39434E-01
  0.10871E+01  0.10007E-01  0.39434E-01
  0.10265E+01  0.10025E-01  0.39434E-01
  0.10871E+01  0.10025E-01  0.39434E-01
  0.10265E+01  0.10007E-01  0.60566E-01
  0.10871E+01  0.10007E-01  0.60566E-01
  0.10265E+01  0.10025E-01  0.60566E-01
  0.10871E+01  0.10025E-01  0.60566E-01
  0.10265E+01  0.10007E-01  0.89434E-01
  0.10871E+01  0.10007E-01  0.89434E-01
  0.10265E+01  0.10025E-01  0.89434E-01
  0.10871E+01  0.10025E-01  0.89434E-01
  0.92907E+00  0.10007E-01  0.10566E-01
  0.98415E+00  0.10007E-01  0.10566E-01
  0.92907E+00  0.10025E-01  0.10566E-01
  0.98415E+00  0.10025E-01  0.10566E-01
  0.92907E+00  0.10007E-01  0.39434E-01
  0.98415E+00  0.10007E-01  0.39434E-01
  0.92907E+00  0.10025E-01  0.39434E-01
  0.98415E+00  0.10025E-01  0.39434E-01
  0.92907E+00  0.10007E-01  0.60566E-01
  0.98415E+00  0.10007E-01  0.60566E-01
  0.92907E+00  0.10025E-01  0.60566E-01
  0.98415E+00  0.10025E-01  0.60566E-01
  0.92907E+00  0.10007E-01  0.89434E-01
  0.98415E+00  0.10007E-01  0.89434E-01
  0.92907E+00  0.10025E-01  0.89434E-01
  0.98415E+00  0.10025E-01  0.89434E-01
  0.84050E+00  0.10007E-01  0.10566E-01
  0.89058E+00  0.10007E-01  0.10566E-01
  0.84050E+00  0.10025E-01  0.10566E-01
  0.89058E+00  0.10025E-01  0.10566E-01
  0.84050E+00  0.10007E-01  0.39434E-01
  0.89058E+00  0.10007E-01  0.39434E-01
  0.84050E+00  0.10025E-01  0.39434E-01
  0.89058E+00  0.10025E-01  0.39434E-01
  0.84050E+00  0.10007E-01  0.60566E-01
  0.89058E+00  0.10007E-01  0.60566E-01
  0.84050E+00  0.10025E-01  0.60566E-01
  0.89058E+00  0.10025E-01  0.60566E-01
  0.84050E+00  0.10007E-01  0.89434E-01
  0.89058E+00  0.10007E-01  0.89434E-01
  0.84050E+00  0.10025E-01  0.89434E-01
  0.89058E+00  0.10025E-01  0.89434E-01
  0.75998E+00  0.10007E-01  0.10566E-01
  0.80551E+00  0.10007E-01  0.10566E-01
  0.75998E+00  0.10025E-01  0.10566E-01
  0.80551E+00  0.10025E-01  0.10566E-01
  0.75998E+00  0.10007E-01  0.39434E-01
  0.80551E+00  0.10007E-01  0.39434E-01
  0.75998E+00  0.10025E-01  0.39434E-01
  0.80551E+00  0.10025E-01  0.39434E-01
  0.75998E+00  0.10007E-01  0.60566E-01
  0.80551E+00  0.10007E-01  0.60566E-01
  0.75998E+00  0.10025E-01  0.60566E-01
  0.80551E+00  0.10025E-01  0.60566E-01
  0.75998E+00  0.10007E-01  0.89434E-01
  0.80551E+00  0.10007E-01  0.89434E-01
  0.75998E+00  0.10025E-01  0.89434E-01
  0.80551E+00  0.10025E-01  0.89434E-01
  0.68679E+00  0.10007E-01  0.10566E-01
  0.72817E+00  0.10007E-01  0.10566E-01
  0.68679E+00  0.10025E-01  0.10566E-01
  0.72817E+00  0.10025E-01  0.10566E-01
  0.68679E+00  0.10007E-01  0.39434E-01
  0.72817E+00  0.10007E-01  0.39434E-01
  0.68679E+00  0.10025E-01  0.39434E-01
  0.72817E+00  0.10025E-01  0.39434E-01
  0.68679E+00  0.10007E-01  0.60566E-01
  0.72817E+00  0.10007E-01  0.60566E-01
  0.68679E+00  0.10025E-01  0.60566E-01
  0.72817E+00  0.10025E-01  0.60566E-01
  0.68679E+00  0.10007E-01  0.89434E-01
  0.72817E+00  0.10007E-01  0.89434E-01
  0.68679E+00  0.10025E-01  0.89434E-01
  0.72817E+00  0.10025E-01  0.89434E-01
  0.62024E+00  0.10007E-01  0.10566E-01
  0.65787E+00  0.10007E-01  0.10566E-01
  0.62024E+00  0.10025E-01  0.10566E-01
  0.65787E+00  0.10025E-01  0.10566E-01
  0.62024E+00  0.10007E-01  0.39434E-01
  0.65787E+00  0.10007E-01  0.39434E-01
  0.62024E+00  0.10025E-01  0.39434E-01
  0.65787E+00  0.10025E-01  0.39434E-01
  0.62024E+00  0.10007E-01  0.60566E-01
  0.65787E+00  0.10007E-01  0.60566E-01
  0.62024E+00  0.10025E-01  0.60566E-01
  0.65787E+00  0.10025E-01  0.60566E-01
  0.62024E+00  0.10007E-01  0.89434E-01
  0.65787E+00  0.10007E-01  0.89434E-01
  0.62024E+00  0.10025E-01  0.89434E-01
  0.65787E+00  0.10025E-01  0.89434E-01
  0.55975E+00  0.10007E-01  0.10566E-01
  0.59395E+00  0.10007E-01  0.10566E-01
  0.55975E+00  0.10025E-01  0.10566E-01
  0.59395E+00  0.10025E-01  0.10566E-01
  0.55975E+00  0.10007E-01  0.39434E-01
  0.59395E+00  0.10007E-01  0.39434E-01
  0.55975E+00  0.10025E-01  0.39434E-01
  0.59395E+00  0.10025E-01  0.39434E-01
  0.55975E+00  0.10007E-01  0.60566E-01
  0.59395E+00  0.10007E-01  0.60566E-01
  0.55975E+00  0.10025E-01  0.60566E-01
  0.59395E+00  0.10025E-01  0.60566E-01
  0.55975E+00  0.10007E-01  0.89434E-01
  0.59395E+00  0.10007E-01  0.89434E-01
  0.55975E+00  0.10025E-01  0.89434E-01
  0.59395E+00  0.10025E-01  0.89434E-01
  0.50475E+00  0.10007E-01  0.10566E-01
  0.53585E+00  0.10007E-01  0.10566E-01
  0.50475E+00  0.10025E-01  0.10566E-01
  0.53585E+00  0.10025E-01  0.10566E-01
  0.50475E+00  0.10007E-01  0.39434E-01
  0.53585E+00  0.10007E-01  0.39434E-01
  0.50475E+00  0.10025E-01  0.39434E-01
  0.53585E+00  0.10025E-01  0.39434E-01
  0.50475E+00  0.10007E-01  0.60566E-01
  0.53585E+00  0.10007E-01  0.60566E-01
  0.50475E+00  0.10025E-01  0.60566E-01
  0.53585E+00  0.10025E-01  0.60566E-01
  0.50475E+00  0.10007E-01  0.89434E-01
  0.53585E+00  0.10007E-01  0.89434E-01
  0.50475E+00  0.10025E-01  0.89434E-01
  0.53585E+00  0.10025E-01  0.89434E-01
  0.45476E+00  0.10007E-01  0.10566E-01
  0.48303E+00  0.10007E-01  0.10566E-01
  0.45476E+00  0.10025E-01  0.10566E-01
  0.48303E+00  0.10025E-01  0.10566E-01
  0.45476E+00  0.10007E-01  0.39434E-01
  0.48303E+00  0.10007E-01  0.39434E-01
  0.45476E+00  0.10025E-01  0.39434E-01
  0.48303E+00  0.10025E-01  0.39434E-01
  0.45476E+00  0.10007E-01  0.60566E-01
  0.48303E+00  0.10007E-01  0.60566E-01
  0.45476E+00  0.10025E-01  0.60566E-01
  0.48303E+00  0.10025E-01  0.60566E-01
  0.45476E+00  0.10007E-01  0.89434E-01
  0.48303E+00  0.10007E-01  0.89434E-01
  0.45476E+00  0.10025E-01  0.89434E-01
  0.48303E+00  0.10025E-01  0.89434E-01
  0.40931E+00  0.10007E-01  0.10566E-01
  0.43501E+00  0.10007E-01  0.10566E-01
  0.40931E+00  0.10025E-01  0.10566E-01
  0.43501E+00  0.10025E-01  0.10566E-01
  0.40931E+00  0.10007E-01  0.39434E-01
  0.43501E+00  0.10007E-01  0.39434E-01
  0.40931E+00  0.10025E-01  0.39434E-01
  0.43501E+00  0.10025E-01  0.39434E-01
  0.40931E+00  0.10007E-01  0.60566E-01
  0.43501E+00  0.10007E-01  0.60566E-01
  0.40931E+00  0.10025E-01  0.60566E-01
  0.43501E+00  0.10025E-01  0.60566E-01
  0.40931E+00  0.10007E-01  0.89434E-01
  0.43501E+00  0.10007E-01  0.89434E-01
  0.40931E+00  0.10025E-01  0.89434E-01
  0.43501E+00  0.10025E-01  0.89434E-01
  0.36799E+00  0.10007E-01  0.10566E-01
  0.39135E+00  0.10007E-01  0.10566E-01
  0.36799E+00  0.10025E-01  0.10566E-01
  0.39135E+00  0.10025E-01  0.10566E-01
  0.36799E+00  0.10007E-01  0.39434E-01
  0.39135E+00  0.10007E-01  0.39434E-01
  0.36799E+00  0.10025E-01  0.39434E-01
  0.39135E+00  0.10025E-01  0.39434E-01
  0.36799E+00  0.10007E-01  0.60566E-01
  0.39135E+00  0.10007E-01  0.60566E-01
  0.36799E+00  0.10025E-01  0.60566E-01
  0.39135E+00  0.10025E-01  0.60566E-01
  0.36799E+00  0.10007E-01  0.89434E-01
  0.39135E+00  0.10007E-01  0.89434E-01
  0.36799E+00  0.10025E-01  0.89434E-01
  0.39135E+00  0.10025E-01  0.89434E-01
  0.33043E+00  0.10007E-01  0.10566E-01
  0.35167E+00  0.10007E-01  0.10566E-01
  0.33043E+00  0.10025E-01  0.10566E-01
  0.35167E+00  0.10025E-01  0.10566E-01
  0.33043E+00  0.10007E-01  0.39434E-01
  0.35167E+00  0.10007E-01  0.39434E-01
  0.33043E+00  0.10025E-01  0.39434E-01
  0.35167E+00  0.10025E-01  0.39434E-01
  0.33043E+00  0.10007E-01  0.60566E-01
  0.35167E+00  0.10007E-01  0.60566E-01
  0.33043E+00  0.10025E-01  0.60566E-01
  0.35167E+00  0.10025E-01  0.60566E-01
  0.33043E+00  0.10007E-01  0.89434E-01
  0.35167E+00  0.10007E-01  0.89434E-01
  0.33043E+00  0.10025E-01  0.89434E-01
  0.35167E+00  0.10025E-01  0.89434E-01
  0.29628E+00  0.10007E-01  0.10566E-01
  0.31559E+00  0.10007E-01  0.10566E-01
  0.29628E+00  0.10025E-01  0.10566E-01
  0.31559E+00  0.10025E-01  0.10566E-01
  0.29628E+00  0.10007E-01  0.39434E-01
  0.31559E+00  0.10007E-01  0.39434E-01
  0.29628E+00  0.10025E-01  0.39434E-01
  0.31559E+00  0.10025E-01  0.39434E-01
  0.29628E+00  0.10007E-01  0.60566E-01
  0.31559E+00  0.10007E-01  0.60566E-01
  0.29628E+00  0.10025E-01  0.60566E-01
  0.31559E+00  0.10025E-01  0.60566E-01
  0.29628E+00  0.10007E-01  0.89434E-01
  0.31559E+00  0.10007E-01  0.89434E-01
  0.29628E+00  0.10025E-01  0.89434E-01
  0.31559E+00  0.10025E-01  0.89434E-01
  0.26524E+00  0.10007E-01  0.10566E-01
  0.28279E+00  0.10007E-01  0.10566E-01
  0.26524E+00  0.10025E-01  0.10566E-01
  0.28279E+00  0.10025E-01  0.10566E-01
  0.26524E+00  0.10007E-01  0.39434E-01
  0.28279E+00  0.10007E-01  0.39434E-01
  0.26524E+00  0.10025E-01  0.39434E-01
  0.28279E+00  0.10025E-01  0.39434E-01
  0.26524E+00  0.10007E-01  0.60566E-01
  0.28279E+00  0.10007E-01  0.60566E-01
  0.26524E+00  0.10025E-01  0.60566E-01
  0.28279E+00  0.10025E-01  0.60566E-01
  0.26524E+00  0.10007E-01  0.89434E-01
  0.28279E+00  0.10007E-01  0.89434E-01
  0.26524E+00  0.10025E-01  0.89434E-01
  0.28279E+00  0.10025E-01  0.89434E-01
  0.23702E+00  0.10007E-01  0.10566E-01
  0.25298E+00  0.10007E-01  0.10566E-01
  0.23702E+00  0.10025E-01  0.10566E-01
  0.25298E+00  0.10025E-01  0.10566E-01
  0.23702E+00  0.10007E-01  0.39434E-01
  0.25298E+00  0.10007E-01  0.39434E-01
  0.23702E+00  0.10025E-01  0.39434E-01
  0.25298E+00  0.10025E-01  0.39434E-01
  0.23702E+00  0.10007E-01  0.60566E-01
  0.25298E+00  0.10007E-01  0.60566E-01
  0.23702E+00  0.10025E-01  0.60566E-01
  0.25298E+00  0.10025E-01  0.60566E-01
  0.23702E+00  0.10007E-01  0.89434E-01
  0.25298E+00  0.10007E-01  0.89434E-01
  0.23702E+00  0.10025E-01  0.89434E-01
  0.25298E+00  0.10025E-01  0.89434E-01
  0.21136E+00  0.10007E-01  0.10566E-01
  0.22587E+00  0.10007E-01  0.10566E-01
  0.21136E+00  0.10025E-01  0.10566E-01
  0.22587E+00  0.10025E-01  0.10566E-01
  0.21136E+00  0.10007E-01  0.39434E-01
  0.22587E+00  0.10007E-01  0.39434E-01
  0.21136E+00  0.10025E-01  0.39434E-01
  0.22587E+00  0.10025E-01  0.39434E-01
  0.21136E+00  0.10007E-01  0.60566E-01
  0.22587E+00  0.10007E-01  0.60566E-01
  0.21136E+00  0.10025E-01  0.60566E-01
  0.22587E+00  0.10025E-01  0.60566E-01
  0.21136E+00  0.10007E-01  0.89434E-01
  0.22587E+00  0.10007E-01  0.89434E-01
  0.21136E+00  0.10025E-01  0.89434E-01
  0.22587E+00  0.10025E-01  0.89434E-01
  0.18804E+00  0.10007E-01  0.10566E-01
  0.20123E+00  0.10007E-01  0.10566E-01
  0.18804E+00  0.10025E-01  0.10566E-01
  0.20123E+00  0.10025E-01  0.10566E-01
  0.18804E+00  0.10007E-01  0.39434E-01
  0.20123E+00  0.10007E-01  0.39434E-01
  0.18804E+00  0.10025E-01  0.39434E-01
  0.20123E+00  0.10025E-01  0.39434E-01
  0.18804E+00  0.10007E-01  0.60566E-01
  0.20123E+00  0.10007E-01  0.60566E-01
  0.18804E+00  0.10025E-01  0.60566E-01
  0.20123E+00  0.10025E-01  0.60566E-01
  0.18804E+00  0.10007E-01  0.89434E-01
  0.20123E+00  0.10007E-01  0.89434E-01
  0.18804E+00  0.10025E-01  0.89434E-01
  0.20123E+00  0.10025E-01  0.89434E-01
  0.16684E+00  0.10007E-01  0.10566E-01
  0.17883E+00  0.10007E-01  0.10566E-01
  0.16684E+00  0.10025E-01  0.10566E-01
  0.17883E+00  0.10025E-01  0.10566E-01
  0.16684E+00  0.10007E-01  0.39434E-01
  0.17883E+00  0.10007E-01  0.39434E-01
  0.16684E+00  0.10025E-01  0.39434E-01
  0.17883E+00  0.10025E-01  0.39434E-01
  0.16684E+00  0.10007E-01  0.60566E-01
  0.17883E+00  0.10007E-01  0.60566E-01
  0.16684E+00  0.10025E-01  0.60566E-01
  0.17883E+00  0.10025E-01  0.60566E-01
  0.16684E+00  0.10007E-01  0.89434E-01
  0.17883E+00  0.10007E-01  0.89434E-01
  0.16684E+00  0.10025E-01  0.89434E-01
  0.17883E+00  0.10025E-01  0.89434E-01
  0.14756E+00  0.10007E-01  0.10566E-01
  0.15846E+00  0.10007E-01  0.10566E-01
  0.14756E+00  0.10025E-01  0.10566E-01
  0.15846E+00  0.10025E-01  0.10566E-01
  0.14756E+00  0.10007E-01  0.39434E-01
  0.15846E+00  0.10007E-01  0.39434E-01
  0.14756E+00  0.10025E-01  0.39434E-01
  0.15846E+00  0.10025E-01  0.39434E-01
  0.14756E+00  0.10007E-01  0.60566E-01
  0.15846E+00  0.10007E-01  0.60566E-01
  0.14756E+00  0.10025E-01  0.60566E-01
  0.15846E+00  0.10025E-01  0.60566E-01
  0.14756E+00  0.10007E-01  0.89434E-01
  0.15846E+00  0.10007E-01  0.89434E-01
  0.14756E+00  0.10025E-01  0.89434E-01
  0.15846E+00  0.10025E-01  0.89434E-01
  0.13004E+00  0.10007E-01  0.10566E-01
  0.13995E+00  0.10007E-01  0.10566E-01
  0.13004E+00  0.10025E-01  0.10566E-01
  0.13995E+00  0.10025E-01  0.10566E-01
  0.13004E+00  0.10007E-01  0.39434E-01
  0.13995E+00  0.10007E-01  0.39434E-01
  0.13004E+00  0.10025E-01  0.39434E-01
  0.13995E+00  0.10025E-01  0.39434E-01
  0.13004E+00  0.10007E-01  0.60566E-01
  0.13995E+00  0.10007E-01  0.60566E-01
  0.13004E+00  0.10025E-01  0.60566E-01
  0.13995E+00  0.10025E-01  0.60566E-01
  0.13004E+00  0.10007E-01  0.89434E-01
  0.13995E+00  0.10007E-01  0.89434E-01
  0.13004E+00  0.10025E-01  0.89434E-01
  0.13995E+00  0.10025E-01  0.89434E-01
  0.11411E+00  0.10007E-01  0.10566E-01
  0.12312E+00  0.10007E-01  0.10566E-01
  0.11411E+00  0.10025E-01  0.10566E-01
  0.12312E+00  0.10025E-01  0.10566E-01
  0.11411E+00  0.10007E-01  0.39434E-01
  0.12312E+00  0.10007E-01  0.39434E-01
  0.11411E+00  0.10025E-01  0.39434E-01
  0.12312E+00  0.10025E-01  0.39434E-01
  0.11411E+00  0.10007E-01  0.60566E-01
  0.12312E+00  0.10007E-01  0.60566E-01
  0.11411E+00  0.10025E-01  0.60566E-01
  0.12312E+00  0.10025E-01  0.60566E-01
  0.11411E+00  0.10007E-01  0.89434E-01
  0.12312E+00  0.10007E-01  0.89434E-01
  0.11411E+00  0.10025E-01  0.89434E-01
  0.12312E+00  0.10025E-01  0.89434E-01
  0.99629E-01  0.10007E-01  0.10566E-01
  0.10782E+00  0.10007E-01  0.10566E-01
  0.99629E-01  0.10025E-01  0.10566E-01
  0.10782E+00  0.10025E-01  0.10566E-01
  0.99629E-01  0.10007E-01  0.39434E-01
  0.10782E+00  0.10007E-01  0.39434E-01
  0.99629E-01  0.10025E-01  0.39434E-01
  0.10782E+00  0.10025E-01  0.39434E-01
  0.99629E-01  0.10007E-01  0.60566E-01
  0.10782E+00  0.10007E-01  0.60566E-01
  0.99629E-01  0.10025E-01  0.60566E-01
  0.10782E+00  0.10025E-01  0.60566E-01
  0.99629E-01  0.10007E-01  0.89434E-01
  0.10782E+00  0.10007E-01  0.89434E-01
  0.99629E-01  0.10025E-01  0.89434E-01
  0.10782E+00  0.10025E-01  0.89434E-01
  0.86464E-01  0.10007E-01  0.10566E-01
  0.93907E-01  0.10007E-01  0.10566E-01
  0.86464E-01  0.10025E-01  0.10566E-01
  0.93907E-01  0.10025E-01  0.10566E-01
  0.86464E-01  0.10007E-01  0.39434E-01
  0.93907E-01  0.10007E-01  0.39434E-01
  0.86464E-01  0.10025E-01  0.39434E-01
  0.93907E-01  0.10025E-01  0.39434E-01
  0.86464E-01  0.10007E-01  0.60566E-01
  0.93907E-01  0.10007E-01  0.60566E-01
  0.86464E-01  0.10025E-01  0.60566E-01
  0.93907E-01  0.10025E-01  0.60566E-01
  0.86464E-01  0.10007E-01  0.89434E-01
  0.93907E-01  0.10007E-01  0.89434E-01
  0.86464E-01  0.10025E-01  0.89434E-01
  0.93907E-01  0.10025E-01  0.89434E-01
  0.74495E-01  0.10007E-01  0.10566E-01
  0.81262E-01  0.10007E-01  0.10566E-01
  0.74495E-01  0.10025E-01  0.10566E-01
  0.81262E-01  0.10025E-01  0.10566E-01
  0.74495E-01  0.10007E-01  0.39434E-01
  0.81262E-01  0.10007E-01  0.39434E-01
  0.74495E-01  0.10025E-01  0.39434E-01
  0.81262E-01  0.10025E-01  0.39434E-01
  0.74495E-01  0.10007E-01  0.60566E-01
  0.81262E-01  0.10007E-01  0.60566E-01
  0.74495E-01  0.10025E-01  0.60566E-01
  0.81262E-01  0.10025E-01  0.60566E-01
  0.74495E-01  0.10007E-01  0.89434E-01
  0.81262E-01  0.10007E-01  0.89434E-01
  0.74495E-01  0.10025E-01  0.89434E-01
  0.81262E-01  0.10025E-01  0.89434E-01
  0.63615E-01  0.10007E-01  0.10566E-01
  0.69767E-01  0.10007E-01  0.10566E-01
  0.63615E-01  0.10025E-01  0.10566E-01
  0.69767E-01  0.10025E-01  0.10566E-01
  0.63615E-01  0.10007E-01  0.39434E-01
  0.69767E-01  0.10007E-01  0.39434E-01
  0.63615E-01  0.10025E-01  0.39434E-01
  0.69767E-01  0.10025E-01  0.39434E-01
  0.63615E-01  0.10007E-01  0.60566E-01
  0.69767E-01  0.10007E-01  0.60566E-01
  0.63615E-01  0.10025E-01  0.60566E-01
  0.69767E-01  0.10025E-01  0.60566E-01
  0.63615E-01  0.10007E-01  0.89434E-01
  0.69767E-01  0.10007E-01  0.89434E-01
  0.63615E-01  0.10025E-01  0.89434E-01
  0.69767E-01  0.10025E-01  0.89434E-01
  0.53724E-01  0.10007E-01  0.10566E-01
  0.59316E-01  0.10007E-01  0.10566E-01
  0.53724E-01  0.10025E-01  0.10566E-01
  0.59316E-01  0.10025E-01  0.10566E-01
  0.53724E-01  0.10007E-01  0.39434E-01
  0.59316E-01  0.10007E-01  0.39434E-01
  0.53724E-01  0.10025E-01  0.39434E-01
  0.59316E-01  0.10025E-01  0.39434E-01
  0.53724E-01  0.10007E-01  0.60566E-01
  0.59316E-01  0.10007E-01  0.60566E-01
  0.53724E-01  0.10025E-01  0.60566E-01
  0.59316E-01  0.10025E-01  0.60566E-01
  0.53724E-01  0.10007E-01  0.89434E-01
  0.59316E-01  0.10007E-01  0.89434E-01
  0.53724E-01  0.10025E-01  0.89434E-01
  0.59316E-01  0.10025E-01  0.89434E-01
  0.44732E-01  0.10007E-01  0.10566E-01
  0.49816E-01  0.10007E-01  0.10566E-01
  0.44732E-01  0.10025E-01  0.10566E-01
  0.49816E-01  0.10025E-01  0.10566E-01
  0.44732E-01  0.10007E-01  0.39434E-01
  0.49816E-01  0.10007E-01  0.39434E-01
  0.44732E-01  0.10025E-01  0.39434E-01
  0.49816E-01  0.10025E-01  0.39434E-01
  0.44732E-01  0.10007E-01  0.60566E-01
  0.49816E-01  0.10007E-01  0.60566E-01
  0.44732E-01  0.10025E-01  0.60566E-01
  0.49816E-01  0.10025E-01  0.60566E-01
  0.44732E-01  0.10007E-01  0.89434E-01
  0.49816E-01  0.10007E-01  0.89434E-01
  0.44732E-01  0.10025E-01  0.89434E-01
  0.49816E-01  0.10025E-01  0.89434E-01
  0.36557E-01  0.10007E-01  0.10566E-01
  0.41179E-01  0.10007E-01  0.10566E-01
  0.36557E-01  0.10025E-01  0.10566E-01
  0.41179E-01  0.10025E-01  0.10566E-01
  0.36557E-01  0.10007E-01  0.39434E-01
  0.41179E-01  0.10007E-01  0.39434E-01
  0.36557E-01  0.10025E-01  0.39434E-01
  0.41179E-01  0.10025E-01  0.39434E-01
  0.36557E-01  0.10007E-01  0.60566E-01
  0.41179E-01  0.10007E-01  0.60566E-01
  0.36557E-01  0.10025E-01  0.60566E-01
  0.41179E-01  0.10025E-01  0.60566E-01
  0.36557E-01  0.10007E-01  0.89434E-01
  0.41179E-01  0.10007E-01  0.89434E-01
  0.36557E-01  0.10025E-01  0.89434E-01
  0.41179E-01  0.10025E-01  0.89434E-01
  0.29126E-01  0.10007E-01  0.10566E-01
  0.33328E-01  0.10007E-01  0.10566E-01
  0.29126E-01  0.10025E-01  0.10566E-01
  0.33328E-01  0.10025E-01  0.10566E-01
  0.29126E-01  0.10007E-01  0.39434E-01
  0.33328E-01  0.10007E-01  0.39434E-01
  0.29126E-01  0.10025E-01  0.39434E-01
  0.33328E-01  0.10025E-01  0.39434E-01
  0.29126E-01  0.10007E-01  0.60566E-01
  0.33328E-01  0.10007E-01  0.60566E-01
  0.29126E-01  0.10025E-01  0.60566E-01
  0.33328E-01  0.10025E-01  0.60566E-01
  0.29126E-01  0.10007E-01  0.89434E-01
  0.33328E-01  0.10007E-01  0.89434E-01
  0.29126E-01  0.10025E-01  0.89434E-01
  0.33328E-01  0.10025E-01  0.89434E-01
  0.22370E-01  0.10007E-01  0.10566E-01
  0.26190E-01  0.10007E-01  0.10566E-01
  0.22370E-01  0.10025E-01  0.10566E-01
  0.26190E-01  0.10025E-01  0.10566E-01
  0.22370E-01  0.10007E-01  0.39434E-01
  0.26190E-01  0.10007E-01  0.39434E-01
  0.22370E-01  0.10025E-01  0.39434E-01
  0.26190E-01  0.10025E-01  0.39434E-01
  0.22370E-01  0.10007E-01  0.60566E-01
  0.26190E-01  0.10007E-01  0.60566E-01
  0.22370E-01  0.10025E-01  0.60566E-01
  0.26190E-01  0.10025E-01  0.60566E-01
  0.22370E-01  0.10007E-01  0.89434E-01
  0.26190E-01  0.10007E-01  0.89434E-01
  0.22370E-01  0.10025E-01  0.89434E-01
  0.26190E-01  0.10025E-01  0.89434E-01
  0.16228E-01  0.10007E-01  0.10566E-01
  0.19701E-01  0.10007E-01  0.10566E-01
  0.16228E-01  0.10025E-01  0.10566E-01
  0.19701E-01  0.10025E-01  0.10566E-01
  0.16228E-01  0.10007E-01  0.39434E-01
  0.19701E-01  0.10007E-01  0.39434E-01
  0.16228E-01  0.10025E-01  0.39434E-01
  0.19701E-01  0.10025E-01  0.39434E-01
  0.16228E-01  0.10007E-01  0.60566E-01
  0.19701E-01  0.10007E-01  0.60566E-01
  0.16228E-01  0.10025E-01  0.60566E-01
  0.19701E-01  0.10025E-01  0.60566E-01
  0.16228E-01  0.10007E-01  0.89434E-01
  0.19701E-01  0.10007E-01  0.89434E-01
  0.16228E-01  0.10025E-01  0.89434E-01
  0.19701E-01  0.10025E-01  0.89434E-01
  0.10645E-01  0.10007E-01  0.10566E-01
  0.13802E-01  0.10007E-01  0.10566E-01
  0.10645E-01  0.10025E-01  0.10566E-01
  0.13802E-01  0.10025E-01  0.10566E-01
  0.10645E-01  0.10007E-01  0.39434E-01
  0.13802E-01  0.10007E-01  0.39434E-01
  0.10645E-01  0.10025E-01  0.39434E-01
  0.13802E-01  0.10025E-01  0.39434E-01
  0.10645E-01  0.10007E-01  0.60566E-01
  0.13802E-01  0.10007E-01  0.60566E-01
  0.10645E-01  0.10025E-01  0.60566E-01
  0.13802E-01  0.10025E-01  0.60566E-01
  0.10645E-01  0.10007E-01  0.89434E-01
  0.13802E-01  0.10007E-01  0.89434E-01
  0.10645E-01  0.10025E-01  0.89434E-01
  0.13802E-01  0.10025E-01  0.89434E-01
  0.55693E-02  0.10007E-01  0.10566E-01
  0.84391E-02  0.10007E-01  0.10566E-01
  0.55693E-02  0.10025E-01  0.10566E-01
  0.84391E-02  0.10025E-01  0.10566E-01
  0.55693E-02  0.10007E-01  0.39434E-01
  0.84391E-02  0.10007E-01  0.39434E-01
  0.55693E-02  0.10025E-01  0.39434E-01
  0.84391E-02  0.10025E-01  0.39434E-01
  0.55693E-02  0.10007E-01  0.60566E-01
  0.84391E-02  0.10007E-01  0.60566E-01
  0.55693E-02  0.10025E-01  0.60566E-01
  0.84391E-02  0.10025E-01  0.60566E-01
  0.55693E-02  0.10007E-01  0.89434E-01
  0.84391E-02  0.10007E-01  0.89434E-01
  0.55693E-02  0.10025E-01  0.89434E-01
  0.84391E-02  0.10025E-01  0.89434E-01
  0.95494E-03  0.10007E-01  0.10566E-01
  0.35639E-02  0.10007E-01  0.10566E-01
  0.95494E-03  0.10025E-01  0.10566E-01
  0.35639E-02  0.10025E-01  0.10566E-01
  0.95494E-03  0.10007E-01  0.39434E-01
  0.35639E-02  0.10007E-01  0.39434E-01
  0.95494E-03  0.10025E-01  0.39434E-01
  0.35639E-02  0.10025E-01  0.39434E-01
  0.95494E-03  0.10007E-01  0.60566E-01
  0.35639E-02  0.10007E-01  0.60566E-01
  0.95494E-03  0.10025E-01  0.60566E-01
  0.35639E-02  0.10025E-01  0.60566E-01
  0.95494E-03  0.10007E-01  0.89434E-01
  0.35639E-02  0.10007E-01  0.89434E-01
  0.95494E-03  0.10025E-01  0.89434E-01
  0.35639E-02  0.10025E-01  0.89434E-01
  0.18534E+01  0.10044E-01  0.10566E-01
  0.19607E+01  0.10044E-01  0.10566E-01
  0.18534E+01  0.10078E-01  0.10566E-01
  0.19607E+01  0.10078E-01  0.10566E-01
  0.18534E+01  0.10044E-01  0.39434E-01
  0.19607E+01  0.10044E-01  0.39434E-01
  0.18534E+01  0.10078E-01  0.39434E-01
  0.19607E+01  0.10078E-01  0.39434E-01
  0.18534E+01  0.10044E-01  0.60566E-01
  0.19607E+01  0.10044E-01  0.60566E-01
  0.18534E+01  0.10078E-01  0.60566E-01
  0.19607E+01  0.10078E-01  0.60566E-01
  0.18534E+01  0.10044E-01  0.89434E-01
  0.19607E+01  0.10044E-01  0.89434E-01
  0.18534E+01  0.10078E-01  0.89434E-01
  0.19607E+01  0.10078E-01  0.89434E-01
  0.16808E+01  0.10044E-01  0.10566E-01
  0.17784E+01  0.10044E-01  0.10566E-01
  0.16808E+01  0.10078E-01  0.10566E-01
  0.17784E+01  0.10078E-01  0.10566E-01
  0.16808E+01  0.10044E-01  0.39434E-01
  0.17784E+01  0.10044E-01  0.39434E-01
  0.16808E+01  0.10078E-01  0.39434E-01
  0.17784E+01  0.10078E-01  0.39434E-01
  0.16808E+01  0.10044E-01  0.60566E-01
  0.17784E+01  0.10044E-01  0.60566E-01
  0.16808E+01  0.10078E-01  0.60566E-01
  0.17784E+01  0.10078E-01  0.60566E-01
  0.16808E+01  0.10044E-01  0.89434E-01
  0.17784E+01  0.10044E-01  0.89434E-01
  0.16808E+01  0.10078E-01  0.89434E-01
  0.17784E+01  0.10078E-01  0.89434E-01
  0.15239E+01  0.10044E-01  0.10566E-01
  0.16126E+01  0.10044E-01  0.10566E-01
  0.15239E+01  0.10078E-01  0.10566E-01
  0.16126E+01  0.10078E-01  0.10566E-01
  0.15239E+01  0.10044E-01  0.39434E-01
  0.16126E+01  0.10044E-01  0.39434E-01
  0.15239E+01  0.10078E-01  0.39434E-01
  0.16126E+01  0.10078E-01  0.39434E-01
  0.15239E+01  0.10044E-01  0.60566E-01
  0.16126E+01  0.10044E-01  0.60566E-01
  0.15239E+01  0.10078E-01  0.60566E-01
  0.16126E+01  0.10078E-01  0.60566E-01
  0.15239E+01  0.10044E-01  0.89434E-01
  0.16126E+01  0.10044E-01  0.89434E-01
  0.15239E+01  0.10078E-01  0.89434E-01
  0.16126E+01  0.10078E-01  0.89434E-01
  0.13812E+01  0.10044E-01  0.10566E-01
  0.14619E+01  0.10044E-01  0.10566E-01
  0.13812E+01  0.10078E-01  0.10566E-01
  0.14619E+01  0.10078E-01  0.10566E-01
  0.13812E+01  0.10044E-01  0.39434E-01
  0.14619E+01  0.10044E-01  0.39434E-01
  0.13812E+01  0.10078E-01  0.39434E-01
  0.14619E+01  0.10078E-01  0.39434E-01
  0.13812E+01  0.10044E-01  0.60566E-01
  0.14619E+01  0.10044E-01  0.60566E-01
  0.13812E+01  0.10078E-01  0.60566E-01
  0.14619E+01  0.10078E-01  0.60566E-01
  0.13812E+01  0.10044E-01  0.89434E-01
  0.14619E+01  0.10044E-01  0.89434E-01
  0.13812E+01  0.10078E-01  0.89434E-01
  0.14619E+01  0.10078E-01  0.89434E-01
  0.12515E+01  0.10044E-01  0.10566E-01
  0.13249E+01  0.10044E-01  0.10566E-01
  0.12515E+01  0.10078E-01  0.10566E-01
  0.13249E+01  0.10078E-01  0.10566E-01
  0.12515E+01  0.10044E-01  0.39434E-01
  0.13249E+01  0.10044E-01  0.39434E-01
  0.12515E+01  0.10078E-01  0.39434E-01
  0.13249E+01  0.10078E-01  0.39434E-01
  0.12515E+01  0.10044E-01  0.60566E-01
  0.13249E+01  0.10044E-01  0.60566E-01
  0.12515E+01  0.10078E-01  0.60566E-01
  0.13249E+01  0.10078E-01  0.60566E-01
  0.12515E+01  0.10044E-01  0.89434E-01
  0.13249E+01  0.10044E-01  0.89434E-01
  0.12515E+01  0.10078E-01  0.89434E-01
  0.13249E+01  0.10078E-01  0.89434E-01
  0.11337E+01  0.10044E-01  0.10566E-01
  0.12003E+01  0.10044E-01  0.10566E-01
  0.11337E+01  0.10078E-01  0.10566E-01
  0.12003E+01  0.10078E-01  0.10566E-01
  0.11337E+01  0.10044E-01  0.39434E-01
  0.12003E+01  0.10044E-01  0.39434E-01
  0.11337E+01  0.10078E-01  0.39434E-01
  0.12003E+01  0.10078E-01  0.39434E-01
  0.11337E+01  0.10044E-01  0.60566E-01
  0.12003E+01  0.10044E-01  0.60566E-01
  0.11337E+01  0.10078E-01  0.60566E-01
  0.12003E+01  0.10078E-01  0.60566E-01
  0.11337E+01  0.10044E-01  0.89434E-01
  0.12003E+01  0.10044E-01  0.89434E-01
  0.11337E+01  0.10078E-01  0.89434E-01
  0.12003E+01  0.10078E-01  0.89434E-01
  0.10265E+01  0.10044E-01  0.10566E-01
  0.10871E+01  0.10044E-01  0.10566E-01
  0.10265E+01  0.10078E-01  0.10566E-01
  0.10871E+01  0.10078E-01  0.10566E-01
  0.10265E+01  0.10044E-01  0.39434E-01
  0.10871E+01  0.10044E-01  0.39434E-01
  0.10265E+01  0.10078E-01  0.39434E-01
  0.10871E+01  0.10078E-01  0.39434E-01
  0.10265E+01  0.10044E-01  0.60566E-01
  0.10871E+01  0.10044E-01  0.60566E-01
  0.10265E+01  0.10078E-01  0.60566E-01