           TITLE = "KD-tree"
VARIABLES = "x", "y", "z"
ZONE NODES=8, ELEMENTS = 6, DATAPACKING=POINT, ZONETYPE=FETETRAHEDRON
 -0.99900E-03 -0.40000E-05 -0.49000E-04
  0.10000E-05 -0.40000E-05 -0.49000E-04
  0.10000E-05 -0.40000E-05  0.10005E+00
 -0.99900E-03 -0.40000E-05  0.10005E+00
 -0.99900E-03  0.10006E-01 -0.49000E-04
  0.10000E-05  0.10006E-01 -0.49000E-04
  0.10000E-05  0.10006E-01  0.10005E+00
 -0.99900E-03  0.10006E-01  0.10005E+00
 1 2 3 4
 1 5 8 4
 5 6 7 8
 2 3 7 6
 4 8 7 3
 1 2 6 5
ZONE NODES=8, ELEMENTS = 6, DATAPACKING=POINT, ZONETYPE=FETETRAHEDRON
  0.10000E-05 -0.40000E-05 -0.49000E-04
  0.20010E+01 -0.40000E-05 -0.49000E-04
  0.20010E+01 -0.40000E-05  0.10000E-05
  0.10000E-05 -0.40000E-05  0.10000E-05
  0.10000E-05  0.10006E-01 -0.49000E-04
  0.20010E+01  0.10006E-01 -0.49000E-04
  0.20010E+01  0.10006E-01  0.10000E-05
  0.10000E-05  0.10006E-01  0.10000E-05
 1 2 3 4
 1 5 8 4
 5 6 7 8
 2 3 7 6
 4 8 7 3
 1 2 6 5
ZONE NODES=8, ELEMENTS = 6, DATAPACKING=POINT, ZONETYPE=FETETRAHEDRON
  0.10000E-05 -0.40000E-05  0.10000E-05
  0.20010E+01 -0.40000E-05  0.10000E-05
  0.20010E+01 -0.40000E-05  0.10005E+00
  0.10000E-05 -0.40000E-05  0.10005E+00
  0.10000E-05  0.10000E-05  0.10000E-05
  0.20010E+01  0.10000E-05  0.10000E-05
  0.20010E+01  0.10000E-05  0.10005E+00
  0.10000E-05  0.10000E-05  0.10005E+00
 1 2 3 4
 1 5 8 4
 5 6 7 8
 2 3 7 6
 4 8 7 3
 1 2 6 5
ZONE NODES=8, ELEMENTS = 6, DATAPACKING=POINT, ZONETYPE=FETETRAHEDRON
  0.10000E-05  0.10000E-05  0.10000E-05
  0.10000E-05  0.10000E-05  0.10000E-05
  0.10000E-05  0.10000E-05  0.10005E+00
  0.10000E-05  0.10000E-05  0.10005E+00
  0.10000E-05  0.10006E-01  0.10000E-05
  0.10000E-05  0.10006E-01  0.10000E-05
  0.10000E-05  0.10006E-01  0.10005E+00
  0.10000E-05  0.10006E-01  0.10005E+00
 1 2 3 4
 1 5 8 4
 5 6 7 8
 2 3 7 6
 4 8 7 3
 1 2 6 5
ZONE NODES=8, ELEMENTS = 6, DATAPACKING=POINT, ZONETYPE=FETETRAHEDRON
  0.10000E-05  0.10000E-05  0.10000E-05
  0.20000E+01  0.10000E-05  0.10000E-05
  0.20000E+01  0.10000E-05  0.10005E+00
  0.10000E-05  0.10000E-05  0.10005E+00
  0.10000E-05  0.10006E-01  0.10000E-05
  0.20000E+01  0.10006E-01  0.10000E-05
  0.20000E+01  0.10006E-01  0.10005E+00
  0.10000E-05  0.10006E-01  0.10005E+00
 1 2 3 4
 1 5 8 4
 5 6 7 8
 2 3 7 6
 4 8 7 3
 1 2 6 5
ZONE NODES=8, ELEMENTS = 6, DATAPACKING=POINT, ZONETYPE=FETETRAHEDRON
  0.20000E+01  0.10000E-05  0.10000E-05
  0.20000E+01  0.10000E-05  0.10000E-05
  0.20000E+01  0.10000E-05  0.10005E+00
  0.20000E+01  0.10000E-05  0.10005E+00
  0.20000E+01  0.10006E-01  0.10000E-05
  0.20000E+01  0.10006E-01  0.10000E-05
  0.20000E+01  0.10006E-01  0.10005E+00
  0.20000E+01  0.10006E-01  0.10005E+00
 1 2 3 4
 1 5 8 4
 5 6 7 8
 2 3 7 6
 4 8 7 3
 1 2 6 5
ZONE NODES=8, ELEMENTS = 6, DATAPACKING=POINT, ZONETYPE=FETETRAHEDRON
  0.20000E+01  0.10000E-05  0.10000E-05
  0.20010E+01  0.10000E-05  0.10000E-05
  0.20010E+01  0.10000E-05  0.10005E+00
  0.20000E+01  0.10000E-05  0.10005E+00
  0.20000E+01  0.10006E-01  0.10000E-05
  0.20010E+01  0.10006E-01  0.10000E-05
  0.20010E+01  0.10006E-01  0.10005E+00
  0.20000E+01  0.10006E-01  0.10005E+00
 1 2 3 4
 1 5 8 4
 5 6 7 8
 2 3 7 6
 4 8 7 3
 1 2 6 5
