TITLE = "Mask Points"
VARIABLES = "x","y","z"
ZONE I=12960,J=2,K=1, DATAPACKING=POINT
  0.40096E-02  0.99995E-02  0.56351E-02
  0.22594E-02  0.99995E-02  0.56351E-02
  0.50928E-03  0.99995E-02  0.56351E-02
  0.40096E-02  0.99980E-02  0.56351E-02
  0.22594E-02  0.99980E-02  0.56351E-02
  0.50928E-03  0.99980E-02  0.56351E-02
  0.40096E-02  0.99964E-02  0.56351E-02
  0.22594E-02  0.99964E-02  0.56351E-02
  0.50928E-03  0.99964E-02  0.56351E-02
  0.40096E-02  0.99995E-02  0.25000E-01
  0.22594E-02  0.99995E-02  0.25000E-01
  0.50928E-03  0.99995E-02  0.25000E-01
  0.40096E-02  0.99980E-02  0.25000E-01
  0.22594E-02  0.99980E-02  0.25000E-01
  0.50928E-03  0.99980E-02  0.25000E-01
  0.40096E-02  0.99964E-02  0.25000E-01
  0.22594E-02  0.99964E-02  0.25000E-01
  0.50928E-03  0.99964E-02  0.25000E-01
  0.40096E-02  0.99995E-02  0.44365E-01
  0.22594E-02  0.99995E-02  0.44365E-01
  0.50928E-03  0.99995E-02  0.44365E-01
  0.40096E-02  0.99980E-02  0.44365E-01
  0.22594E-02  0.99980E-02  0.44365E-01
  0.50928E-03  0.99980E-02  0.44365E-01
  0.40096E-02  0.99964E-02  0.44365E-01
  0.22594E-02  0.99964E-02  0.44365E-01
  0.50928E-03  0.99964E-02  0.44365E-01
  0.40096E-02  0.99995E-02  0.55635E-01
  0.22594E-02  0.99995E-02  0.55635E-01
  0.50928E-03  0.99995E-02  0.55635E-01
  0.40096E-02  0.99980E-02  0.55635E-01
  0.22594E-02  0.99980E-02  0.55635E-01
  0.50928E-03  0.99980E-02  0.55635E-01
  0.40096E-02  0.99964E-02  0.55635E-01
  0.22594E-02  0.99964E-02  0.55635E-01
  0.50928E-03  0.99964E-02  0.55635E-01
  0.40096E-02  0.99995E-02  0.75000E-01
  0.22594E-02  0.99995E-02  0.75000E-01
  0.50928E-03  0.99995E-02  0.75000E-01
  0.40096E-02  0.99980E-02  0.75000E-01
  0.22594E-02  0.99980E-02  0.75000E-01
  0.50928E-03  0.99980E-02  0.75000E-01
  0.40096E-02  0.99964E-02  0.75000E-01
  0.22594E-02  0.99964E-02  0.75000E-01
  0.50928E-03  0.99964E-02  0.75000E-01
  0.40096E-02  0.99995E-02  0.94365E-01
  0.22594E-02  0.99995E-02  0.94365E-01
  0.50928E-03  0.99995E-02  0.94365E-01
  0.40096E-02  0.99980E-02  0.94365E-01
  0.22594E-02  0.99980E-02  0.94365E-01
  0.50928E-03  0.99980E-02  0.94365E-01
  0.40096E-02  0.99964E-02  0.94365E-01
  0.22594E-02  0.99964E-02  0.94365E-01
  0.50928E-03  0.99964E-02  0.94365E-01
  0.89293E-02  0.99995E-02  0.56351E-02
  0.70042E-02  0.99995E-02  0.56351E-02
  0.50790E-02  0.99995E-02  0.56351E-02
  0.89293E-02  0.99980E-02  0.56351E-02
  0.70042E-02  0.99980E-02  0.56351E-02
  0.50790E-02  0.99980E-02  0.56351E-02
  0.89293E-02  0.99964E-02  0.56351E-02
  0.70042E-02  0.99964E-02  0.56351E-02
  0.50790E-02  0.99964E-02  0.56351E-02
  0.89293E-02  0.99995E-02  0.25000E-01
  0.70042E-02  0.99995E-02  0.25000E-01
  0.50790E-02  0.99995E-02  0.25000E-01
  0.89293E-02  0.99980E-02  0.25000E-01
  0.70042E-02  0.99980E-02  0.25000E-01
  0.50790E-02  0.99980E-02  0.25000E-01
  0.89293E-02  0.99964E-02  0.25000E-01
  0.70042E-02  0.99964E-02  0.25000E-01
  0.50790E-02  0.99964E-02  0.25000E-01
  0.89293E-02  0.99995E-02  0.44365E-01
  0.70042E-02  0.99995E-02  0.44365E-01
  0.50790E-02  0.99995E-02  0.44365E-01
  0.89293E-02  0.99980E-02  0.44365E-01
  0.70042E-02  0.99980E-02  0.44365E-01
  0.50790E-02  0.99980E-02  0.44365E-01
  0.89293E-02  0.99964E-02  0.44365E-01
  0.70042E-02  0.99964E-02  0.44365E-01
  0.50790E-02  0.99964E-02  0.44365E-01
  0.89293E-02  0.99995E-02  0.55635E-01
  0.70042E-02  0.99995E-02  0.55635E-01
  0.50790E-02  0.99995E-02  0.55635E-01
  0.89293E-02  0.99980E-02  0.55635E-01
  0.70042E-02  0.99980E-02  0.55635E-01
  0.50790E-02  0.99980E-02  0.55635E-01
  0.89293E-02  0.99964E-02  0.55635E-01
  0.70042E-02  0.99964E-02  0.55635E-01
  0.50790E-02  0.99964E-02  0.55635E-01
  0.89293E-02  0.99995E-02  0.75000E-01
  0.70042E-02  0.99995E-02  0.75000E-01
  0.50790E-02  0.99995E-02  0.75000E-01
  0.89293E-02  0.99980E-02  0.75000E-01
  0.70042E-02  0.99980E-02  0.75000E-01
  0.50790E-02  0.99980E-02  0.75000E-01
  0.89293E-02  0.99964E-02  0.75000E-01
  0.70042E-02  0.99964E-02  0.75000E-01
  0.50790E-02  0.99964E-02  0.75000E-01
  0.89293E-02  0.99995E-02  0.94365E-01
  0.70042E-02  0.99995E-02  0.94365E-01
  0.50790E-02  0.99995E-02  0.94365E-01
  0.89293E-02  0.99980E-02  0.94365E-01
  0.70042E-02  0.99980E-02  0.94365E-01
  0.50790E-02  0.99980E-02  0.94365E-01
  0.89293E-02  0.99964E-02  0.94365E-01
  0.70042E-02  0.99964E-02  0.94365E-01
  0.50790E-02  0.99964E-02  0.94365E-01
  0.14341E-01  0.99995E-02  0.56351E-02
  0.12223E-01  0.99995E-02  0.56351E-02
  0.10106E-01  0.99995E-02  0.56351E-02
  0.14341E-01  0.99980E-02  0.56351E-02
  0.12223E-01  0.99980E-02  0.56351E-02
  0.10106E-01  0.99980E-02  0.56351E-02
  0.14341E-01  0.99964E-02  0.56351E-02
  0.12223E-01  0.99964E-02  0.56351E-02
  0.10106E-01  0.99964E-02  0.56351E-02
  0.14341E-01  0.99995E-02  0.25000E-01
  0.12223E-01  0.99995E-02  0.25000E-01
  0.10106E-01  0.99995E-02  0.25000E-01
  0.14341E-01  0.99980E-02  0.25000E-01
  0.12223E-01  0.99980E-02  0.25000E-01
  0.10106E-01  0.99980E-02  0.25000E-01
  0.14341E-01  0.99964E-02  0.25000E-01
  0.12223E-01  0.99964E-02  0.25000E-01
  0.10106E-01  0.99964E-02  0.25000E-01
  0.14341E-01  0.99995E-02  0.44365E-01
  0.12223E-01  0.99995E-02  0.44365E-01
  0.10106E-01  0.99995E-02  0.44365E-01
  0.14341E-01  0.99980E-02  0.44365E-01
  0.12223E-01  0.99980E-02  0.44365E-01
  0.10106E-01  0.99980E-02  0.44365E-01
  0.14341E-01  0.99964E-02  0.44365E-01
  0.12223E-01  0.99964E-02  0.44365E-01
  0.10106E-01  0.99964E-02  0.44365E-01
  0.14341E-01  0.99995E-02  0.55635E-01
  0.12223E-01  0.99995E-02  0.55635E-01
  0.10106E-01  0.99995E-02  0.55635E-01
  0.14341E-01  0.99980E-02  0.55635E-01
  0.12223E-01  0.99980E-02  0.55635E-01
  0.10106E-01  0.99980E-02  0.55635E-01
  0.14341E-01  0.99964E-02  0.55635E-01
  0.12223E-01  0.99964E-02  0.55635E-01
  0.10106E-01  0.99964E-02  0.55635E-01
  0.14341E-01  0.99995E-02  0.75000E-01
  0.12223E-01  0.99995E-02  0.75000E-01
  0.10106E-01  0.99995E-02  0.75000E-01
  0.14341E-01  0.99980E-02  0.75000E-01
  0.12223E-01  0.99980E-02  0.75000E-01
  0.10106E-01  0.99980E-02  0.75000E-01
  0.14341E-01  0.99964E-02  0.75000E-01
  0.12223E-01  0.99964E-02  0.75000E-01
  0.10106E-01  0.99964E-02  0.75000E-01
  0.14341E-01  0.99995E-02  0.94365E-01
  0.12223E-01  0.99995E-02  0.94365E-01
  0.10106E-01  0.99995E-02  0.94365E-01
  0.14341E-01  0.99980E-02  0.94365E-01
  0.12223E-01  0.99980E-02  0.94365E-01
  0.10106E-01  0.99980E-02  0.94365E-01
  0.14341E-01  0.99964E-02  0.94365E-01
  0.12223E-01  0.99964E-02  0.94365E-01
  0.10106E-01  0.99964E-02  0.94365E-01
  0.20294E-01  0.99995E-02  0.56351E-02
  0.17965E-01  0.99995E-02  0.56351E-02
  0.15635E-01  0.99995E-02  0.56351E-02
  0.20294E-01  0.99980E-02  0.56351E-02
  0.17965E-01  0.99980E-02  0.56351E-02
  0.15635E-01  0.99980E-02  0.56351E-02
  0.20294E-01  0.99964E-02  0.56351E-02
  0.17965E-01  0.99964E-02  0.56351E-02
  0.15635E-01  0.99964E-02  0.56351E-02
  0.20294E-01  0.99995E-02  0.25000E-01
  0.17965E-01  0.99995E-02  0.25000E-01
  0.15635E-01  0.99995E-02  0.25000E-01
  0.20294E-01  0.99980E-02  0.25000E-01
  0.17965E-01  0.99980E-02  0.25000E-01
  0.15635E-01  0.99980E-02  0.25000E-01
  0.20294E-01  0.99964E-02  0.25000E-01
  0.17965E-01  0.99964E-02  0.25000E-01
  0.15635E-01  0.99964E-02  0.25000E-01
  0.20294E-01  0.99995E-02  0.44365E-01
  0.17965E-01  0.99995E-02  0.44365E-01
  0.15635E-01  0.99995E-02  0.44365E-01
  0.20294E-01  0.99980E-02  0.44365E-01
  0.17965E-01  0.99980E-02  0.44365E-01
  0.15635E-01  0.99980E-02  0.44365E-01
  0.20294E-01  0.99964E-02  0.44365E-01
  0.17965E-01  0.99964E-02  0.44365E-01
  0.15635E-01  0.99964E-02  0.44365E-01
  0.20294E-01  0.99995E-02  0.55635E-01
  0.17965E-01  0.99995E-02  0.55635E-01
  0.15635E-01  0.99995E-02  0.55635E-01
  0.20294E-01  0.99980E-02  0.55635E-01
  0.17965E-01  0.99980E-02  0.55635E-01
  0.15635E-01  0.99980E-02  0.55635E-01
  0.20294E-01  0.99964E-02  0.55635E-01
  0.17965E-01  0.99964E-02  0.55635E-01
  0.15635E-01  0.99964E-02  0.55635E-01
  0.20294E-01  0.99995E-02  0.75000E-01
  0.17965E-01  0.99995E-02  0.75000E-01
  0.15635E-01  0.99995E-02  0.75000E-01
  0.20294E-01  0.99980E-02  0.75000E-01
  0.17965E-01  0.99980E-02  0.75000E-01
  0.15635E-01  0.99980E-02  0.75000E-01
  0.20294E-01  0.99964E-02  0.75000E-01
  0.17965E-01  0.99964E-02  0.75000E-01
  0.15635E-01  0.99964E-02  0.75000E-01
  0.20294E-01  0.99995E-02  0.94365E-01
  0.17965E-01  0.99995E-02  0.94365E-01
  0.15635E-01  0.99995E-02  0.94365E-01
  0.20294E-01  0.99980E-02  0.94365E-01
  0.17965E-01  0.99980E-02  0.94365E-01
  0.15635E-01  0.99980E-02  0.94365E-01
  0.20294E-01  0.99964E-02  0.94365E-01
  0.17965E-01  0.99964E-02  0.94365E-01
  0.15635E-01  0.99964E-02  0.94365E-01
  0.26842E-01  0.99995E-02  0.56351E-02
  0.24280E-01  0.99995E-02  0.56351E-02
  0.21718E-01  0.99995E-02  0.56351E-02
  0.26842E-01  0.99980E-02  0.56351E-02
  0.24280E-01  0.99980E-02  0.56351E-02
  0.21718E-01  0.99980E-02  0.56351E-02
  0.26842E-01  0.99964E-02  0.56351E-02
  0.24280E-01  0.99964E-02  0.56351E-02
  0.21718E-01  0.99964E-02  0.56351E-02
  0.26842E-01  0.99995E-02  0.25000E-01
  0.24280E-01  0.99995E-02  0.25000E-01
  0.21718E-01  0.99995E-02  0.25000E-01
  0.26842E-01  0.99980E-02  0.25000E-01
  0.24280E-01  0.99980E-02  0.25000E-01
  0.21718E-01  0.99980E-02  0.25000E-01
  0.26842E-01  0.99964E-02  0.25000E-01
  0.24280E-01  0.99964E-02  0.25000E-01
  0.21718E-01  0.99964E-02  0.25000E-01
  0.26842E-01  0.99995E-02  0.44365E-01
  0.24280E-01  0.99995E-02  0.44365E-01
  0.21718E-01  0.99995E-02  0.44365E-01
  0.26842E-01  0.99980E-02  0.44365E-01
  0.24280E-01  0.99980E-02  0.44365E-01
  0.21718E-01  0.99980E-02  0.44365E-01
  0.26842E-01  0.99964E-02  0.44365E-01
  0.24280E-01  0.99964E-02  0.44365E-01
  0.21718E-01  0.99964E-02  0.44365E-01
  0.26842E-01  0.99995E-02  0.55635E-01
  0.24280E-01  0.99995E-02  0.55635E-01
  0.21718E-01  0.99995E-02  0.55635E-01
  0.26842E-01  0.99980E-02  0.55635E-01
  0.24280E-01  0.99980E-02  0.55635E-01
  0.21718E-01  0.99980E-02  0.55635E-01
  0.26842E-01  0.99964E-02  0.55635E-01
  0.24280E-01  0.99964E-02  0.55635E-01
  0.21718E-01  0.99964E-02  0.55635E-01
  0.26842E-01  0.99995E-02  0.75000E-01
  0.24280E-01  0.99995E-02  0.75000E-01
  0.21718E-01  0.99995E-02  0.75000E-01
  0.26842E-01  0.99980E-02  0.75000E-01
  0.24280E-01  0.99980E-02  0.75000E-01
  0.21718E-01  0.99980E-02  0.75000E-01
  0.26842E-01  0.99964E-02  0.75000E-01
  0.24280E-01  0.99964E-02  0.75000E-01
  0.21718E-01  0.99964E-02  0.75000E-01
  0.26842E-01  0.99995E-02  0.94365E-01
  0.24280E-01  0.99995E-02  0.94365E-01
  0.21718E-01  0.99995E-02  0.94365E-01
  0.26842E-01  0.99980E-02  0.94365E-01
  0.24280E-01  0.99980E-02  0.94365E-01
  0.21718E-01  0.99980E-02  0.94365E-01
  0.26842E-01  0.99964E-02  0.94365E-01
  0.24280E-01  0.99964E-02  0.94365E-01
  0.21718E-01  0.99964E-02  0.94365E-01
  0.34045E-01  0.99995E-02  0.56351E-02
  0.31227E-01  0.99995E-02  0.56351E-02
  0.28408E-01  0.99995E-02  0.56351E-02
  0.34045E-01  0.99980E-02  0.56351E-02
  0.31227E-01  0.99980E-02  0.56351E-02
  0.28408E-01  0.99980E-02  0.56351E-02
  0.34045E-01  0.99964E-02  0.56351E-02
  0.31227E-01  0.99964E-02  0.56351E-02
  0.28408E-01  0.99964E-02  0.56351E-02
  0.34045E-01  0.99995E-02  0.25000E-01
  0.31227E-01  0.99995E-02  0.25000E-01
  0.28408E-01  0.99995E-02  0.25000E-01
  0.34045E-01  0.99980E-02  0.25000E-01
  0.31227E-01  0.99980E-02  0.25000E-01
  0.28408E-01  0.99980E-02  0.25000E-01
  0.34045E-01  0.99964E-02  0.25000E-01
  0.31227E-01  0.99964E-02  0.25000E-01
  0.28408E-01  0.99964E-02  0.25000E-01
  0.34045E-01  0.99995E-02  0.44365E-01
  0.31227E-01  0.99995E-02  0.44365E-01
  0.28408E-01  0.99995E-02  0.44365E-01
  0.34045E-01  0.99980E-02  0.44365E-01
  0.31227E-01  0.99980E-02  0.44365E-01
  0.28408E-01  0.99980E-02  0.44365E-01
  0.34045E-01  0.99964E-02  0.44365E-01
  0.31227E-01  0.99964E-02  0.44365E-01
  0.28408E-01  0.99964E-02  0.44365E-01
  0.34045E-01  0.99995E-02  0.55635E-01
  0.31227E-01  0.99995E-02  0.55635E-01
  0.28408E-01  0.99995E-02  0.55635E-01
  0.34045E-01  0.99980E-02  0.55635E-01
  0.31227E-01  0.99980E-02  0.55635E-01
  0.28408E-01  0.99980E-02  0.55635E-01
  0.34045E-01  0.99964E-02  0.55635E-01
  0.31227E-01  0.99964E-02  0.55635E-01
  0.28408E-01  0.99964E-02  0.55635E-01
  0.34045E-01  0.99995E-02  0.75000E-01
  0.31227E-01  0.99995E-02  0.75000E-01
  0.28408E-01  0.99995E-02  0.75000E-01
  0.34045E-01  0.99980E-02  0.75000E-01
  0.31227E-01  0.99980E-02  0.75000E-01
  0.28408E-01  0.99980E-02  0.75000E-01
  0.34045E-01  0.99964E-02  0.75000E-01
  0.31227E-01  0.99964E-02  0.75000E-01
  0.28408E-01  0.99964E-02  0.75000E-01
  0.34045E-01  0.99995E-02  0.94365E-01
  0.31227E-01  0.99995E-02  0.94365E-01
  0.28408E-01  0.99995E-02  0.94365E-01
  0.34045E-01  0.99980E-02  0.94365E-01
  0.31227E-01  0.99980E-02  0.94365E-01
  0.28408E-01  0.99980E-02  0.94365E-01
  0.34045E-01  0.99964E-02  0.94365E-01
  0.31227E-01  0.99964E-02  0.94365E-01
  0.28408E-01  0.99964E-02  0.94365E-01
  0.41969E-01  0.99995E-02  0.56351E-02
  0.38868E-01  0.99995E-02  0.56351E-02
  0.35768E-01  0.99995E-02  0.56351E-02
  0.41969E-01  0.99980E-02  0.56351E-02
  0.38868E-01  0.99980E-02  0.56351E-02
  0.35768E-01  0.99980E-02  0.56351E-02
  0.41969E-01  0.99964E-02  0.56351E-02
  0.38868E-01  0.99964E-02  0.56351E-02
  0.35768E-01  0.99964E-02  0.56351E-02
  0.41969E-01  0.99995E-02  0.25000E-01
  0.38868E-01  0.99995E-02  0.25000E-01
  0.35768E-01  0.99995E-02  0.25000E-01
  0.41969E-01  0.99980E-02  0.25000E-01
  0.38868E-01  0.99980E-02  0.25000E-01
  0.35768E-01  0.99980E-02  0.25000E-01
  0.41969E-01  0.99964E-02  0.25000E-01
  0.38868E-01  0.99964E-02  0.25000E-01
  0.35768E-01  0.99964E-02  0.25000E-01
  0.41969E-01  0.99995E-02  0.44365E-01
  0.38868E-01  0.99995E-02  0.44365E-01
  0.35768E-01  0.99995E-02  0.44365E-01
  0.41969E-01  0.99980E-02  0.44365E-01
  0.38868E-01  0.99980E-02  0.44365E-01
  0.35768E-01  0.99980E-02  0.44365E-01
  0.41969E-01  0.99964E-02  0.44365E-01
  0.38868E-01  0.99964E-02  0.44365E-01
  0.35768E-01  0.99964E-02  0.44365E-01
  0.41969E-01  0.99995E-02  0.55635E-01
  0.38868E-01  0.99995E-02  0.55635E-01
  0.35768E-01  0.99995E-02  0.55635E-01
  0.41969E-01  0.99980E-02  0.55635E-01
  0.38868E-01  0.99980E-02  0.55635E-01
  0.35768E-01  0.99980E-02  0.55635E-01
  0.41969E-01  0.99964E-02  0.55635E-01
  0.38868E-01  0.99964E-02  0.55635E-01
  0.35768E-01  0.99964E-02  0.55635E-01
  0.41969E-01  0.99995E-02  0.75000E-01
  0.38868E-01  0.99995E-02  0.75000E-01
  0.35768E-01  0.99995E-02  0.75000E-01
  0.41969E-01  0.99980E-02  0.75000E-01
  0.38868E-01  0.99980E-02  0.75000E-01
  0.35768E-01  0.99980E-02  0.75000E-01
  0.41969E-01  0.99964E-02  0.75000E-01
  0.38868E-01  0.99964E-02  0.75000E-01
  0.35768E-01  0.99964E-02  0.75000E-01
  0.41969E-01  0.99995E-02  0.94365E-01
  0.38868E-01  0.99995E-02  0.94365E-01
  0.35768E-01  0.99995E-02  0.94365E-01
  0.41969E-01  0.99980E-02  0.94365E-01
  0.38868E-01  0.99980E-02  0.94365E-01
  0.35768E-01  0.99980E-02  0.94365E-01
  0.41969E-01  0.99964E-02  0.94365E-01
  0.38868E-01  0.99964E-02  0.94365E-01
  0.35768E-01  0.99964E-02  0.94365E-01
  0.50684E-01  0.99995E-02  0.56351E-02
  0.47274E-01  0.99995E-02  0.56351E-02
  0.43863E-01  0.99995E-02  0.56351E-02
  0.50684E-01  0.99980E-02  0.56351E-02
  0.47274E-01  0.99980E-02  0.56351E-02
  0.43863E-01  0.99980E-02  0.56351E-02
  0.50684E-01  0.99964E-02  0.56351E-02
  0.47274E-01  0.99964E-02  0.56351E-02
  0.43863E-01  0.99964E-02  0.56351E-02
  0.50684E-01  0.99995E-02  0.25000E-01
  0.47274E-01  0.99995E-02  0.25000E-01
  0.43863E-01  0.99995E-02  0.25000E-01
  0.50684E-01  0.99980E-02  0.25000E-01
  0.47274E-01  0.99980E-02  0.25000E-01
  0.43863E-01  0.99980E-02  0.25000E-01
  0.50684E-01  0.99964E-02  0.25000E-01
  0.47274E-01  0.99964E-02  0.25000E-01
  0.43863E-01  0.99964E-02  0.25000E-01
  0.50684E-01  0.99995E-02  0.44365E-01
  0.47274E-01  0.99995E-02  0.44365E-01
  0.43863E-01  0.99995E-02  0.44365E-01
  0.50684E-01  0.99980E-02  0.44365E-01
  0.47274E-01  0.99980E-02  0.44365E-01
  0.43863E-01  0.99980E-02  0.44365E-01
  0.50684E-01  0.99964E-02  0.44365E-01
  0.47274E-01  0.99964E-02  0.44365E-01
  0.43863E-01  0.99964E-02  0.44365E-01
  0.50684E-01  0.99995E-02  0.55635E-01
  0.47274E-01  0.99995E-02  0.55635E-01
  0.43863E-01  0.99995E-02  0.55635E-01
  0.50684E-01  0.99980E-02  0.55635E-01
  0.47274E-01  0.99980E-02  0.55635E-01
  0.43863E-01  0.99980E-02  0.55635E-01
  0.50684E-01  0.99964E-02  0.55635E-01
  0.47274E-01  0.99964E-02  0.55635E-01
  0.43863E-01  0.99964E-02  0.55635E-01
  0.50684E-01  0.99995E-02  0.75000E-01
  0.47274E-01  0.99995E-02  0.75000E-01
  0.43863E-01  0.99995E-02  0.75000E-01
  0.50684E-01  0.99980E-02  0.75000E-01
  0.47274E-01  0.99980E-02  0.75000E-01
  0.43863E-01  0.99980E-02  0.75000E-01
  0.50684E-01  0.99964E-02  0.75000E-01
  0.47274E-01  0.99964E-02  0.75000E-01
  0.43863E-01  0.99964E-02  0.75000E-01
  0.50684E-01  0.99995E-02  0.94365E-01
  0.47274E-01  0.99995E-02  0.94365E-01
  0.43863E-01  0.99995E-02  0.94365E-01
  0.50684E-01  0.99980E-02  0.94365E-01
  0.47274E-01  0.99980E-02  0.94365E-01
  0.43863E-01  0.99980E-02  0.94365E-01
  0.50684E-01  0.99964E-02  0.94365E-01
  0.47274E-01  0.99964E-02  0.94365E-01
  0.43863E-01  0.99964E-02  0.94365E-01
  0.60272E-01  0.99995E-02  0.56351E-02
  0.56520E-01  0.99995E-02  0.56351E-02
  0.52769E-01  0.99995E-02  0.56351E-02
  0.60272E-01  0.99980E-02  0.56351E-02
  0.56520E-01  0.99980E-02  0.56351E-02
  0.52769E-01  0.99980E-02  0.56351E-02
  0.60272E-01  0.99964E-02  0.56351E-02
  0.56520E-01  0.99964E-02  0.56351E-02
  0.52769E-01  0.99964E-02  0.56351E-02
  0.60272E-01  0.99995E-02  0.25000E-01
  0.56520E-01  0.99995E-02  0.25000E-01
  0.52769E-01  0.99995E-02  0.25000E-01
  0.60272E-01  0.99980E-02  0.25000E-01
  0.56520E-01  0.99980E-02  0.25000E-01
  0.52769E-01  0.99980E-02  0.25000E-01
  0.60272E-01  0.99964E-02  0.25000E-01
  0.56520E-01  0.99964E-02  0.25000E-01
  0.52769E-01  0.99964E-02  0.25000E-01
  0.60272E-01  0.99995E-02  0.44365E-01
  0.56520E-01  0.99995E-02  0.44365E-01
  0.52769E-01  0.99995E-02  0.44365E-01
  0.60272E-01  0.99980E-02  0.44365E-01
  0.56520E-01  0.99980E-02  0.44365E-01
  0.52769E-01  0.99980E-02  0.44365E-01
  0.60272E-01  0.99964E-02  0.44365E-01
  0.56520E-01  0.99964E-02  0.44365E-01
  0.52769E-01  0.99964E-02  0.44365E-01
  0.60272E-01  0.99995E-02  0.55635E-01
  0.56520E-01  0.99995E-02  0.55635E-01
  0.52769E-01  0.99995E-02  0.55635E-01
  0.60272E-01  0.99980E-02  0.55635E-01
  0.56520E-01  0.99980E-02  0.55635E-01
  0.52769E-01  0.99980E-02  0.55635E-01
  0.60272E-01  0.99964E-02  0.55635E-01
  0.56520E-01  0.99964E-02  0.55635E-01
  0.52769E-01  0.99964E-02  0.55635E-01
  0.60272E-01  0.99995E-02  0.75000E-01
  0.56520E-01  0.99995E-02  0.75000E-01
  0.52769E-01  0.99995E-02  0.75000E-01
  0.60272E-01  0.99980E-02  0.75000E-01
  0.56520E-01  0.99980E-02  0.75000E-01
  0.52769E-01  0.99980E-02  0.75000E-01
  0.60272E-01  0.99964E-02  0.75000E-01
  0.56520E-01  0.99964E-02  0.75000E-01
  0.52769E-01  0.99964E-02  0.75000E-01
  0.60272E-01  0.99995E-02  0.94365E-01
  0.56520E-01  0.99995E-02  0.94365E-01
  0.52769E-01  0.99995E-02  0.94365E-01
  0.60272E-01  0.99980E-02  0.94365E-01
  0.56520E-01  0.99980E-02  0.94365E-01
  0.52769E-01  0.99980E-02  0.94365E-01
  0.60272E-01  0.99964E-02  0.94365E-01
  0.56520E-01  0.99964E-02  0.94365E-01
  0.52769E-01  0.99964E-02  0.94365E-01
  0.70818E-01  0.99995E-02  0.56351E-02
  0.66691E-01  0.99995E-02  0.56351E-02
  0.62564E-01  0.99995E-02  0.56351E-02
  0.70818E-01  0.99980E-02  0.56351E-02
  0.66691E-01  0.99980E-02  0.56351E-02
  0.62564E-01  0.99980E-02  0.56351E-02
  0.70818E-01  0.99964E-02  0.56351E-02
  0.66691E-01  0.99964E-02  0.56351E-02
  0.62564E-01  0.99964E-02  0.56351E-02
  0.70818E-01  0.99995E-02  0.25000E-01
  0.66691E-01  0.99995E-02  0.25000E-01
  0.62564E-01  0.99995E-02  0.25000E-01
  0.70818E-01  0.99980E-02  0.25000E-01
  0.66691E-01  0.99980E-02  0.25000E-01
  0.62564E-01  0.99980E-02  0.25000E-01
  0.70818E-01  0.99964E-02  0.25000E-01
  0.66691E-01  0.99964E-02  0.25000E-01
  0.62564E-01  0.99964E-02  0.25000E-01
  0.70818E-01  0.99995E-02  0.44365E-01
  0.66691E-01  0.99995E-02  0.44365E-01
  0.62564E-01  0.99995E-02  0.44365E-01
  0.70818E-01  0.99980E-02  0.44365E-01
  0.66691E-01  0.99980E-02  0.44365E-01
  0.62564E-01  0.99980E-02  0.44365E-01
  0.70818E-01  0.99964E-02  0.44365E-01
  0.66691E-01  0.99964E-02  0.44365E-01
  0.62564E-01  0.99964E-02  0.44365E-01
  0.70818E-01  0.99995E-02  0.55635E-01
  0.66691E-01  0.99995E-02  0.55635E-01
  0.62564E-01  0.99995E-02  0.55635E-01
  0.70818E-01  0.99980E-02  0.55635E-01
  0.66691E-01  0.99980E-02  0.55635E-01
  0.62564E-01  0.99980E-02  0.55635E-01
  0.70818E-01  0.99964E-02  0.55635E-01
  0.66691E-01  0.99964E-02  0.55635E-01
  0.62564E-01  0.99964E-02  0.55635E-01
  0.70818E-01  0.99995E-02  0.75000E-01
  0.66691E-01  0.99995E-02  0.75000E-01
  0.62564E-01  0.99995E-02  0.75000E-01
  0.70818E-01  0.99980E-02  0.75000E-01
  0.66691E-01  0.99980E-02  0.75000E-01
  0.62564E-01  0.99980E-02  0.75000E-01
  0.70818E-01  0.99964E-02  0.75000E-01
  0.66691E-01  0.99964E-02  0.75000E-01
  0.62564E-01  0.99964E-02  0.75000E-01
  0.70818E-01  0.99995E-02  0.94365E-01
  0.66691E-01  0.99995E-02  0.94365E-01
  0.62564E-01  0.99995E-02  0.94365E-01
  0.70818E-01  0.99980E-02  0.94365E-01
  0.66691E-01  0.99980E-02  0.94365E-01
  0.62564E-01  0.99980E-02  0.94365E-01
  0.70818E-01  0.99964E-02  0.94365E-01
  0.66691E-01  0.99964E-02  0.94365E-01
  0.62564E-01  0.99964E-02  0.94365E-01
  0.82418E-01  0.99995E-02  0.56351E-02
  0.77879E-01  0.99995E-02  0.56351E-02
  0.73339E-01  0.99995E-02  0.56351E-02
  0.82418E-01  0.99980E-02  0.56351E-02
  0.77879E-01  0.99980E-02  0.56351E-02
  0.73339E-01  0.99980E-02  0.56351E-02
  0.82418E-01  0.99964E-02  0.56351E-02
  0.77879E-01  0.99964E-02  0.56351E-02
  0.73339E-01  0.99964E-02  0.56351E-02
  0.82418E-01  0.99995E-02  0.25000E-01
  0.77879E-01  0.99995E-02  0.25000E-01
  0.73339E-01  0.99995E-02  0.25000E-01
  0.82418E-01  0.99980E-02  0.25000E-01
  0.77879E-01  0.99980E-02  0.25000E-01
  0.73339E-01  0.99980E-02  0.25000E-01
  0.82418E-01  0.99964E-02  0.25000E-01
  0.77879E-01  0.99964E-02  0.25000E-01
  0.73339E-01  0.99964E-02  0.25000E-01
  0.82418E-01  0.99995E-02  0.44365E-01
  0.77879E-01  0.99995E-02  0.44365E-01
  0.73339E-01  0.99995E-02  0.44365E-01
  0.82418E-01  0.99980E-02  0.44365E-01
  0.77879E-01  0.99980E-02  0.44365E-01
  0.73339E-01  0.99980E-02  0.44365E-01
  0.82418E-01  0.99964E-02  0.44365E-01
  0.77879E-01  0.99964E-02  0.44365E-01
  0.73339E-01  0.99964E-02  0.44365E-01
  0.82418E-01  0.99995E-02  0.55635E-01
  0.77879E-01  0.99995E-02  0.55635E-01
  0.73339E-01  0.99995E-02  0.55635E-01
  0.82418E-01  0.99980E-02  0.55635E-01
  0.77879E-01  0.99980E-02  0.55635E-01
  0.73339E-01  0.99980E-02  0.55635E-01
  0.82418E-01  0.99964E-02  0.55635E-01
  0.77879E-01  0.99964E-02  0.55635E-01
  0.73339E-01  0.99964E-02  0.55635E-01
  0.82418E-01  0.99995E-02  0.75000E-01
  0.77879E-01  0.99995E-02  0.75000E-01
  0.73339E-01  0.99995E-02  0.75000E-01
  0.82418E-01  0.99980E-02  0.75000E-01
  0.77879E-01  0.99980E-02  0.75000E-01
  0.73339E-01  0.99980E-02  0.75000E-01
  0.82418E-01  0.99964E-02  0.75000E-01
  0.77879E-01  0.99964E-02  0.75000E-01
  0.73339E-01  0.99964E-02  0.75000E-01
  0.82418E-01  0.99995E-02  0.94365E-01
  0.77879E-01  0.99995E-02  0.94365E-01
  0.73339E-01  0.99995E-02  0.94365E-01
  0.82418E-01  0.99980E-02  0.94365E-01
  0.77879E-01  0.99980E-02  0.94365E-01
  0.73339E-01  0.99980E-02  0.94365E-01
  0.82418E-01  0.99964E-02  0.94365E-01
  0.77879E-01  0.99964E-02  0.94365E-01
  0.73339E-01  0.99964E-02  0.94365E-01
  0.95179E-01  0.99995E-02  0.56351E-02
  0.90186E-01  0.99995E-02  0.56351E-02
  0.85192E-01  0.99995E-02  0.56351E-02
  0.95179E-01  0.99980E-02  0.56351E-02
  0.90186E-01  0.99980E-02  0.56351E-02
  0.85192E-01  0.99980E-02  0.56351E-02
  0.95179E-01  0.99964E-02  0.56351E-02
  0.90186E-01  0.99964E-02  0.56351E-02
  0.85192E-01  0.99964E-02  0.56351E-02
  0.95179E-01  0.99995E-02  0.25000E-01
  0.90186E-01  0.99995E-02  0.25000E-01
  0.85192E-01  0.99995E-02  0.25000E-01
  0.95179E-01  0.99980E-02  0.25000E-01
  0.90186E-01  0.99980E-02  0.25000E-01
  0.85192E-01  0.99980E-02  0.25000E-01
  0.95179E-01  0.99964E-02  0.25000E-01
  0.90186E-01  0.99964E-02  0.25000E-01
  0.85192E-01  0.99964E-02  0.25000E-01
  0.95179E-01  0.99995E-02  0.44365E-01
  0.90186E-01  0.99995E-02  0.44365E-01
  0.85192E-01  0.99995E-02  0.44365E-01
  0.95179E-01  0.99980E-02  0.44365E-01
  0.90186E-01  0.99980E-02  0.44365E-01
  0.85192E-01  0.99980E-02  0.44365E-01
  0.95179E-01  0.99964E-02  0.44365E-01
  0.90186E-01  0.99964E-02  0.44365E-01
  0.85192E-01  0.99964E-02  0.44365E-01
  0.95179E-01  0.99995E-02  0.55635E-01
  0.90186E-01  0.99995E-02  0.55635E-01
  0.85192E-01  0.99995E-02  0.55635E-01
  0.95179E-01  0.99980E-02  0.55635E-01
  0.90186E-01  0.99980E-02  0.55635E-01
  0.85192E-01  0.99980E-02  0.55635E-01
  0.95179E-01  0.99964E-02  0.55635E-01
  0.90186E-01  0.99964E-02  0.55635E-01
  0.85192E-01  0.99964E-02  0.55635E-01
  0.95179E-01  0.99995E-02  0.75000E-01
  0.90186E-01  0.99995E-02  0.75000E-01
  0.85192E-01  0.99995E-02  0.75000E-01
  0.95179E-01  0.99980E-02  0.75000E-01
  0.90186E-01  0.99980E-02  0.75000E-01
  0.85192E-01  0.99980E-02  0.75000E-01
  0.95179E-01  0.99964E-02  0.75000E-01
  0.90186E-01  0.99964E-02  0.75000E-01
  0.85192E-01  0.99964E-02  0.75000E-01
  0.95179E-01  0.99995E-02  0.94365E-01
  0.90186E-01  0.99995E-02  0.94365E-01
  0.85192E-01  0.99995E-02  0.94365E-01
  0.95179E-01  0.99980E-02  0.94365E-01
  0.90186E-01  0.99980E-02  0.94365E-01
  0.85192E-01  0.99980E-02  0.94365E-01
  0.95179E-01  0.99964E-02  0.94365E-01
  0.90186E-01  0.99964E-02  0.94365E-01
  0.85192E-01  0.99964E-02  0.94365E-01
  0.10922E+00  0.99995E-02  0.56351E-02
  0.10372E+00  0.99995E-02  0.56351E-02
  0.98230E-01  0.99995E-02  0.56351E-02
  0.10922E+00  0.99980E-02  0.56351E-02
  0.10372E+00  0.99980E-02  0.56351E-02
  0.98230E-01  0.99980E-02  0.56351E-02
  0.10922E+00  0.99964E-02  0.56351E-02
  0.10372E+00  0.99964E-02  0.56351E-02
  0.98230E-01  0.99964E-02  0.56351E-02
  0.10922E+00  0.99995E-02  0.25000E-01
  0.10372E+00  0.99995E-02  0.25000E-01
  0.98230E-01  0.99995E-02  0.25000E-01
  0.10922E+00  0.99980E-02  0.25000E-01
  0.10372E+00  0.99980E-02  0.25000E-01
  0.98230E-01  0.99980E-02  0.25000E-01
  0.10922E+00  0.99964E-02  0.25000E-01
  0.10372E+00  0.99964E-02  0.25000E-01
  0.98230E-01  0.99964E-02  0.25000E-01
  0.10922E+00  0.99995E-02  0.44365E-01
  0.10372E+00  0.99995E-02  0.44365E-01
  0.98230E-01  0.99995E-02  0.44365E-01
  0.10922E+00  0.99980E-02  0.44365E-01
  0.10372E+00  0.99980E-02  0.44365E-01
  0.98230E-01  0.99980E-02  0.44365E-01
  0.10922E+00  0.99964E-02  0.44365E-01
  0.10372E+00  0.99964E-02  0.44365E-01
  0.98230E-01  0.99964E-02  0.44365E-01
  0.10922E+00  0.99995E-02  0.55635E-01
  0.10372E+00  0.99995E-02  0.55635E-01
  0.98230E-01  0.99995E-02  0.55635E-01
  0.10922E+00  0.99980E-02  0.55635E-01
  0.10372E+00  0.99980E-02  0.55635E-01
  0.98230E-01  0.99980E-02  0.55635E-01
  0.10922E+00  0.99964E-02  0.55635E-01
  0.10372E+00  0.99964E-02  0.55635E-01
  0.98230E-01  0.99964E-02  0.55635E-01
  0.10922E+00  0.99995E-02  0.75000E-01
  0.10372E+00  0.99995E-02  0.75000E-01
  0.98230E-01  0.99995E-02  0.75000E-01
  0.10922E+00  0.99980E-02  0.75000E-01
  0.10372E+00  0.99980E-02  0.75000E-01
  0.98230E-01  0.99980E-02  0.75000E-01
  0.10922E+00  0.99964E-02  0.75000E-01
  0.10372E+00  0.99964E-02  0.75000E-01
  0.98230E-01  0.99964E-02  0.75000E-01
  0.10922E+00  0.99995E-02  0.94365E-01
  0.10372E+00  0.99995E-02  0.94365E-01
  0.98230E-01  0.99995E-02  0.94365E-01
  0.10922E+00  0.99980E-02  0.94365E-01
  0.10372E+00  0.99980E-02  0.94365E-01
  0.98230E-01  0.99980E-02  0.94365E-01
  0.10922E+00  0.99964E-02  0.94365E-01
  0.10372E+00  0.99964E-02  0.94365E-01
  0.98230E-01  0.99964E-02  0.94365E-01
  0.12466E+00  0.99995E-02  0.56351E-02
  0.11861E+00  0.99995E-02  0.56351E-02
  0.11257E+00  0.99995E-02  0.56351E-02
  0.12466E+00  0.99980E-02  0.56351E-02
  0.11861E+00  0.99980E-02  0.56351E-02
  0.11257E+00  0.99980E-02  0.56351E-02
  0.12466E+00  0.99964E-02  0.56351E-02
  0.11861E+00  0.99964E-02  0.56351E-02
  0.11257E+00  0.99964E-02  0.56351E-02
  0.12466E+00  0.99995E-02  0.25000E-01
  0.11861E+00  0.99995E-02  0.25000E-01
  0.11257E+00  0.99995E-02  0.25000E-01
  0.12466E+00  0.99980E-02  0.25000E-01
  0.11861E+00  0.99980E-02  0.25000E-01
  0.11257E+00  0.99980E-02  0.25000E-01
  0.12466E+00  0.99964E-02  0.25000E-01
  0.11861E+00  0.99964E-02  0.25000E-01
  0.11257E+00  0.99964E-02  0.25000E-01
  0.12466E+00  0.99995E-02  0.44365E-01
  0.11861E+00  0.99995E-02  0.44365E-01
  0.11257E+00  0.99995E-02  0.44365E-01
  0.12466E+00  0.99980E-02  0.44365E-01
  0.11861E+00  0.99980E-02  0.44365E-01
  0.11257E+00  0.99980E-02  0.44365E-01
  0.12466E+00  0.99964E-02  0.44365E-01
  0.11861E+00  0.99964E-02  0.44365E-01
  0.11257E+00  0.99964E-02  0.44365E-01
  0.12466E+00  0.99995E-02  0.55635E-01
  0.11861E+00  0.99995E-02  0.55635E-01
  0.11257E+00  0.99995E-02  0.55635E-01
  0.12466E+00  0.99980E-02  0.55635E-01
  0.11861E+00  0.99980E-02  0.55635E-01
  0.11257E+00  0.99980E-02  0.55635E-01
  0.12466E+00  0.99964E-02  0.55635E-01
  0.11861E+00  0.99964E-02  0.55635E-01
  0.11257E+00  0.99964E-02  0.55635E-01
  0.12466E+00  0.99995E-02  0.75000E-01
  0.11861E+00  0.99995E-02  0.75000E-01
  0.11257E+00  0.99995E-02  0.75000E-01
  0.12466E+00  0.99980E-02  0.75000E-01
  0.11861E+00  0.99980E-02  0.75000E-01
  0.11257E+00  0.99980E-02  0.75000E-01
  0.12466E+00  0.99964E-02  0.75000E-01
  0.11861E+00  0.99964E-02  0.75000E-01
  0.11257E+00  0.99964E-02  0.75000E-01