TITLE = "Mask Points"
VARIABLES = "x","y","z"
ZONE I=35397,J=2,K=1, DATAPACKING=POINT
  0.40283E-03  0.56351E-02  0.47665E+00
  0.40283E-03  0.56351E-02  0.48684E+00
  0.40283E-03  0.56351E-02  0.49703E+00
  0.17871E-02  0.56351E-02  0.47665E+00
  0.17871E-02  0.56351E-02  0.48684E+00
  0.17871E-02  0.56351E-02  0.49703E+00
  0.31715E-02  0.56351E-02  0.47665E+00
  0.31715E-02  0.56351E-02  0.48684E+00
  0.31715E-02  0.56351E-02  0.49703E+00
  0.40283E-03  0.25000E-01  0.47665E+00
  0.40283E-03  0.25000E-01  0.48684E+00
  0.40283E-03  0.25000E-01  0.49703E+00
  0.17871E-02  0.25000E-01  0.47665E+00
  0.17871E-02  0.25000E-01  0.48684E+00
  0.17871E-02  0.25000E-01  0.49703E+00
  0.31715E-02  0.25000E-01  0.47665E+00
  0.31715E-02  0.25000E-01  0.48684E+00
  0.31715E-02  0.25000E-01  0.49703E+00
  0.40283E-03  0.44365E-01  0.47665E+00
  0.40283E-03  0.44365E-01  0.48684E+00
  0.40283E-03  0.44365E-01  0.49703E+00
  0.17871E-02  0.44365E-01  0.47665E+00
  0.17871E-02  0.44365E-01  0.48684E+00
  0.17871E-02  0.44365E-01  0.49703E+00
  0.31715E-02  0.44365E-01  0.47665E+00
  0.31715E-02  0.44365E-01  0.48684E+00
  0.31715E-02  0.44365E-01  0.49703E+00
  0.40283E-03  0.55635E-01  0.47665E+00
  0.40283E-03  0.55635E-01  0.48684E+00
  0.40283E-03  0.55635E-01  0.49703E+00
  0.17871E-02  0.55635E-01  0.47665E+00
  0.17871E-02  0.55635E-01  0.48684E+00
  0.17871E-02  0.55635E-01  0.49703E+00
  0.31715E-02  0.55635E-01  0.47665E+00
  0.31715E-02  0.55635E-01  0.48684E+00
  0.31715E-02  0.55635E-01  0.49703E+00
  0.40283E-03  0.75000E-01  0.47665E+00
  0.40283E-03  0.75000E-01  0.48684E+00
  0.40283E-03  0.75000E-01  0.49703E+00
  0.17871E-02  0.75000E-01  0.47665E+00
  0.17871E-02  0.75000E-01  0.48684E+00
  0.17871E-02  0.75000E-01  0.49703E+00
  0.31715E-02  0.75000E-01  0.47665E+00
  0.31715E-02  0.75000E-01  0.48684E+00
  0.31715E-02  0.75000E-01  0.49703E+00
  0.40283E-03  0.94365E-01  0.47665E+00
  0.40283E-03  0.94365E-01  0.48684E+00
  0.40283E-03  0.94365E-01  0.49703E+00
  0.17871E-02  0.94365E-01  0.47665E+00
  0.17871E-02  0.94365E-01  0.48684E+00
  0.17871E-02  0.94365E-01  0.49703E+00
  0.31715E-02  0.94365E-01  0.47665E+00
  0.31715E-02  0.94365E-01  0.48684E+00
  0.31715E-02  0.94365E-01  0.49703E+00
  0.40283E-03  0.56351E-02  0.45033E+00
  0.40283E-03  0.56351E-02  0.46053E+00
  0.40283E-03  0.56351E-02  0.47072E+00
  0.17871E-02  0.56351E-02  0.45033E+00
  0.17871E-02  0.56351E-02  0.46053E+00
  0.17871E-02  0.56351E-02  0.47072E+00
  0.31715E-02  0.56351E-02  0.45033E+00
  0.31715E-02  0.56351E-02  0.46053E+00
  0.31715E-02  0.56351E-02  0.47072E+00
  0.40283E-03  0.25000E-01  0.45033E+00
  0.40283E-03  0.25000E-01  0.46053E+00
  0.40283E-03  0.25000E-01  0.47072E+00
  0.17871E-02  0.25000E-01  0.45033E+00
  0.17871E-02  0.25000E-01  0.46053E+00
  0.17871E-02  0.25000E-01  0.47072E+00
  0.31715E-02  0.25000E-01  0.45033E+00
  0.31715E-02  0.25000E-01  0.46053E+00
  0.31715E-02  0.25000E-01  0.47072E+00
  0.40283E-03  0.44365E-01  0.45033E+00
  0.40283E-03  0.44365E-01  0.46053E+00
  0.40283E-03  0.44365E-01  0.47072E+00
  0.17871E-02  0.44365E-01  0.45033E+00
  0.17871E-02  0.44365E-01  0.46053E+00
  0.17871E-02  0.44365E-01  0.47072E+00
  0.31715E-02  0.44365E-01  0.45033E+00
  0.31715E-02  0.44365E-01  0.46053E+00
  0.31715E-02  0.44365E-01  0.47072E+00
  0.40283E-03  0.55635E-01  0.45033E+00
  0.40283E-03  0.55635E-01  0.46053E+00
  0.40283E-03  0.55635E-01  0.47072E+00
  0.17871E-02  0.55635E-01  0.45033E+00
  0.17871E-02  0.55635E-01  0.46053E+00
  0.17871E-02  0.55635E-01  0.47072E+00
  0.31715E-02  0.55635E-01  0.45033E+00
  0.31715E-02  0.55635E-01  0.46053E+00
  0.31715E-02  0.55635E-01  0.47072E+00
  0.40283E-03  0.75000E-01  0.45033E+00
  0.40283E-03  0.75000E-01  0.46053E+00
  0.40283E-03  0.75000E-01  0.47072E+00
  0.17871E-02  0.75000E-01  0.45033E+00
  0.17871E-02  0.75000E-01  0.46053E+00
  0.17871E-02  0.75000E-01  0.47072E+00
  0.31715E-02  0.75000E-01  0.45033E+00
  0.31715E-02  0.75000E-01  0.46053E+00
  0.31715E-02  0.75000E-01  0.47072E+00
  0.40283E-03  0.94365E-01  0.45033E+00
  0.40283E-03  0.94365E-01  0.46053E+00
  0.40283E-03  0.94365E-01  0.47072E+00
  0.17871E-02  0.94365E-01  0.45033E+00
  0.17871E-02  0.94365E-01  0.46053E+00
  0.17871E-02  0.94365E-01  0.47072E+00
  0.31715E-02  0.94365E-01  0.45033E+00
  0.31715E-02  0.94365E-01  0.46053E+00
  0.31715E-02  0.94365E-01  0.47072E+00
  0.40283E-03  0.56351E-02  0.42402E+00
  0.40283E-03  0.56351E-02  0.43421E+00
  0.40283E-03  0.56351E-02  0.44440E+00
  0.17871E-02  0.56351E-02  0.42402E+00
  0.17871E-02  0.56351E-02  0.43421E+00
  0.17871E-02  0.56351E-02  0.44440E+00
  0.31715E-02  0.56351E-02  0.42402E+00
  0.31715E-02  0.56351E-02  0.43421E+00
  0.31715E-02  0.56351E-02  0.44440E+00
  0.40283E-03  0.25000E-01  0.42402E+00
  0.40283E-03  0.25000E-01  0.43421E+00
  0.40283E-03  0.25000E-01  0.44440E+00
  0.17871E-02  0.25000E-01  0.42402E+00
  0.17871E-02  0.25000E-01  0.43421E+00
  0.17871E-02  0.25000E-01  0.44440E+00
  0.31715E-02  0.25000E-01  0.42402E+00
  0.31715E-02  0.25000E-01  0.43421E+00
  0.31715E-02  0.25000E-01  0.44440E+00
  0.40283E-03  0.44365E-01  0.42402E+00
  0.40283E-03  0.44365E-01  0.43421E+00
  0.40283E-03  0.44365E-01  0.44440E+00
  0.17871E-02  0.44365E-01  0.42402E+00
  0.17871E-02  0.44365E-01  0.43421E+00
  0.17871E-02  0.44365E-01  0.44440E+00
  0.31715E-02  0.44365E-01  0.42402E+00
  0.31715E-02  0.44365E-01  0.43421E+00
  0.31715E-02  0.44365E-01  0.44440E+00
  0.40283E-03  0.55635E-01  0.42402E+00
  0.40283E-03  0.55635E-01  0.43421E+00
  0.40283E-03  0.55635E-01  0.44440E+00
  0.17871E-02  0.55635E-01  0.42402E+00
  0.17871E-02  0.55635E-01  0.43421E+00
  0.17871E-02  0.55635E-01  0.44440E+00
  0.31715E-02  0.55635E-01  0.42402E+00
  0.31715E-02  0.55635E-01  0.43421E+00
  0.31715E-02  0.55635E-01  0.44440E+00
  0.40283E-03  0.75000E-01  0.42402E+00
  0.40283E-03  0.75000E-01  0.43421E+00
  0.40283E-03  0.75000E-01  0.44440E+00
  0.17871E-02  0.75000E-01  0.42402E+00
  0.17871E-02  0.75000E-01  0.43421E+00
  0.17871E-02  0.75000E-01  0.44440E+00
  0.31715E-02  0.75000E-01  0.42402E+00
  0.31715E-02  0.75000E-01  0.43421E+00
  0.31715E-02  0.75000E-01  0.44440E+00
  0.40283E-03  0.94365E-01  0.42402E+00
  0.40283E-03  0.94365E-01  0.43421E+00
  0.40283E-03  0.94365E-01  0.44440E+00
  0.17871E-02  0.94365E-01  0.42402E+00
  0.17871E-02  0.94365E-01  0.43421E+00
  0.17871E-02  0.94365E-01  0.44440E+00
  0.31715E-02  0.94365E-01  0.42402E+00
  0.31715E-02  0.94365E-01  0.43421E+00
  0.31715E-02  0.94365E-01  0.44440E+00
  0.40283E-03  0.56351E-02  0.39770E+00
  0.40283E-03  0.56351E-02  0.40789E+00
  0.40283E-03  0.56351E-02  0.41809E+00
  0.17871E-02  0.56351E-02  0.39770E+00
  0.17871E-02  0.56351E-02  0.40789E+00
  0.17871E-02  0.56351E-02  0.41809E+00
  0.31715E-02  0.56351E-02  0.39770E+00
  0.31715E-02  0.56351E-02  0.40789E+00
  0.31715E-02  0.56351E-02  0.41809E+00
  0.40283E-03  0.25000E-01  0.39770E+00
  0.40283E-03  0.25000E-01  0.40789E+00
  0.40283E-03  0.25000E-01  0.41809E+00
  0.17871E-02  0.25000E-01  0.39770E+00
  0.17871E-02  0.25000E-01  0.40789E+00
  0.17871E-02  0.25000E-01  0.41809E+00
  0.31715E-02  0.25000E-01  0.39770E+00
  0.31715E-02  0.25000E-01  0.40789E+00
  0.31715E-02  0.25000E-01  0.41809E+00
  0.40283E-03  0.44365E-01  0.39770E+00
  0.40283E-03  0.44365E-01  0.40789E+00
  0.40283E-03  0.44365E-01  0.41809E+00
  0.17871E-02  0.44365E-01  0.39770E+00
  0.17871E-02  0.44365E-01  0.40789E+00
  0.17871E-02  0.44365E-01  0.41809E+00
  0.31715E-02  0.44365E-01  0.39770E+00
  0.31715E-02  0.44365E-01  0.40789E+00
  0.31715E-02  0.44365E-01  0.41809E+00
  0.40283E-03  0.55635E-01  0.39770E+00
  0.40283E-03  0.55635E-01  0.40789E+00
  0.40283E-03  0.55635E-01  0.41809E+00
  0.17871E-02  0.55635E-01  0.39770E+00
  0.17871E-02  0.55635E-01  0.40789E+00
  0.17871E-02  0.55635E-01  0.41809E+00
  0.31715E-02  0.55635E-01  0.39770E+00
  0.31715E-02  0.55635E-01  0.40789E+00
  0.31715E-02  0.55635E-01  0.41809E+00
  0.40283E-03  0.75000E-01  0.39770E+00
  0.40283E-03  0.75000E-01  0.40789E+00
  0.40283E-03  0.75000E-01  0.41809E+00
  0.17871E-02  0.75000E-01  0.39770E+00
  0.17871E-02  0.75000E-01  0.40789E+00
  0.17871E-02  0.75000E-01  0.41809E+00
  0.31715E-02  0.75000E-01  0.39770E+00
  0.31715E-02  0.75000E-01  0.40789E+00
  0.31715E-02  0.75000E-01  0.41809E+00
  0.40283E-03  0.94365E-01  0.39770E+00
  0.40283E-03  0.94365E-01  0.40789E+00
  0.40283E-03  0.94365E-01  0.41809E+00
  0.17871E-02  0.94365E-01  0.39770E+00
  0.17871E-02  0.94365E-01  0.40789E+00
  0.17871E-02  0.94365E-01  0.41809E+00
  0.31715E-02  0.94365E-01  0.39770E+00
  0.31715E-02  0.94365E-01  0.40789E+00
  0.31715E-02  0.94365E-01  0.41809E+00
  0.40283E-03  0.56351E-02  0.37139E+00
  0.40283E-03  0.56351E-02  0.38158E+00
  0.40283E-03  0.56351E-02  0.39177E+00
  0.17871E-02  0.56351E-02  0.37139E+00
  0.17871E-02  0.56351E-02  0.38158E+00
  0.17871E-02  0.56351E-02  0.39177E+00
  0.31715E-02  0.56351E-02  0.37139E+00
  0.31715E-02  0.56351E-02  0.38158E+00
  0.31715E-02  0.56351E-02  0.39177E+00
  0.40283E-03  0.25000E-01  0.37139E+00
  0.40283E-03  0.25000E-01  0.38158E+00
  0.40283E-03  0.25000E-01  0.39177E+00
  0.17871E-02  0.25000E-01  0.37139E+00
  0.17871E-02  0.25000E-01  0.38158E+00
  0.17871E-02  0.25000E-01  0.39177E+00
  0.31715E-02  0.25000E-01  0.37139E+00
  0.31715E-02  0.25000E-01  0.38158E+00
  0.31715E-02  0.25000E-01  0.39177E+00
  0.40283E-03  0.44365E-01  0.37139E+00
  0.40283E-03  0.44365E-01  0.38158E+00
  0.40283E-03  0.44365E-01  0.39177E+00
  0.17871E-02  0.44365E-01  0.37139E+00
  0.17871E-02  0.44365E-01  0.38158E+00
  0.17871E-02  0.44365E-01  0.39177E+00
  0.31715E-02  0.44365E-01  0.37139E+00
  0.31715E-02  0.44365E-01  0.38158E+00
  0.31715E-02  0.44365E-01  0.39177E+00
  0.40283E-03  0.55635E-01  0.37139E+00
  0.40283E-03  0.55635E-01  0.38158E+00
  0.40283E-03  0.55635E-01  0.39177E+00
  0.17871E-02  0.55635E-01  0.37139E+00
  0.17871E-02  0.55635E-01  0.38158E+00
  0.17871E-02  0.55635E-01  0.39177E+00
  0.31715E-02  0.55635E-01  0.37139E+00
  0.31715E-02  0.55635E-01  0.38158E+00
  0.31715E-02  0.55635E-01  0.39177E+00
  0.40283E-03  0.75000E-01  0.37139E+00
  0.40283E-03  0.75000E-01  0.38158E+00
  0.40283E-03  0.75000E-01  0.39177E+00
  0.17871E-02  0.75000E-01  0.37139E+00
  0.17871E-02  0.75000E-01  0.38158E+00
  0.17871E-02  0.75000E-01  0.39177E+00
  0.31715E-02  0.75000E-01  0.37139E+00
  0.31715E-02  0.75000E-01  0.38158E+00
  0.31715E-02  0.75000E-01  0.39177E+00
  0.40283E-03  0.94365E-01  0.37139E+00
  0.40283E-03  0.94365E-01  0.38158E+00
  0.40283E-03  0.94365E-01  0.39177E+00
  0.17871E-02  0.94365E-01  0.37139E+00
  0.17871E-02  0.94365E-01  0.38158E+00
  0.17871E-02  0.94365E-01  0.39177E+00
  0.31715E-02  0.94365E-01  0.37139E+00
  0.31715E-02  0.94365E-01  0.38158E+00
  0.31715E-02  0.94365E-01  0.39177E+00
  0.40283E-03  0.56351E-02  0.34507E+00
  0.40283E-03  0.56351E-02  0.35526E+00
  0.40283E-03  0.56351E-02  0.36546E+00
  0.17871E-02  0.56351E-02  0.34507E+00
  0.17871E-02  0.56351E-02  0.35526E+00
  0.17871E-02  0.56351E-02  0.36546E+00
  0.31715E-02  0.56351E-02  0.34507E+00
  0.31715E-02  0.56351E-02  0.35526E+00
  0.31715E-02  0.56351E-02  0.36546E+00
  0.40283E-03  0.25000E-01  0.34507E+00
  0.40283E-03  0.25000E-01  0.35526E+00
  0.40283E-03  0.25000E-01  0.36546E+00
  0.17871E-02  0.25000E-01  0.34507E+00
  0.17871E-02  0.25000E-01  0.35526E+00
  0.17871E-02  0.25000E-01  0.36546E+00
  0.31715E-02  0.25000E-01  0.34507E+00
  0.31715E-02  0.25000E-01  0.35526E+00
  0.31715E-02  0.25000E-01  0.36546E+00
  0.40283E-03  0.44365E-01  0.34507E+00
  0.40283E-03  0.44365E-01  0.35526E+00
  0.40283E-03  0.44365E-01  0.36546E+00
  0.17871E-02  0.44365E-01  0.34507E+00
  0.17871E-02  0.44365E-01  0.35526E+00
  0.17871E-02  0.44365E-01  0.36546E+00
  0.31715E-02  0.44365E-01  0.34507E+00
  0.31715E-02  0.44365E-01  0.35526E+00
  0.31715E-02  0.44365E-01  0.36546E+00
  0.40283E-03  0.55635E-01  0.34507E+00
  0.40283E-03  0.55635E-01  0.35526E+00
  0.40283E-03  0.55635E-01  0.36546E+00
  0.17871E-02  0.55635E-01  0.34507E+00
  0.17871E-02  0.55635E-01  0.35526E+00
  0.17871E-02  0.55635E-01  0.36546E+00
  0.31715E-02  0.55635E-01  0.34507E+00
  0.31715E-02  0.55635E-01  0.35526E+00
  0.31715E-02  0.55635E-01  0.36546E+00
  0.40283E-03  0.75000E-01  0.34507E+00
  0.40283E-03  0.75000E-01  0.35526E+00
  0.40283E-03  0.75000E-01  0.36546E+00
  0.17871E-02  0.75000E-01  0.34507E+00
  0.17871E-02  0.75000E-01  0.35526E+00
  0.17871E-02  0.75000E-01  0.36546E+00
  0.31715E-02  0.75000E-01  0.34507E+00
  0.31715E-02  0.75000E-01  0.35526E+00
  0.31715E-02  0.75000E-01  0.36546E+00
  0.40283E-03  0.94365E-01  0.34507E+00
  0.40283E-03  0.94365E-01  0.35526E+00
  0.40283E-03  0.94365E-01  0.36546E+00
  0.17871E-02  0.94365E-01  0.34507E+00
  0.17871E-02  0.94365E-01  0.35526E+00
  0.17871E-02  0.94365E-01  0.36546E+00
  0.31715E-02  0.94365E-01  0.34507E+00
  0.31715E-02  0.94365E-01  0.35526E+00
  0.31715E-02  0.94365E-01  0.36546E+00
  0.40283E-03  0.56351E-02  0.31876E+00
  0.40283E-03  0.56351E-02  0.32895E+00
  0.40283E-03  0.56351E-02  0.33914E+00
  0.17871E-02  0.56351E-02  0.31876E+00
  0.17871E-02  0.56351E-02  0.32895E+00
  0.17871E-02  0.56351E-02  0.33914E+00
  0.31715E-02  0.56351E-02  0.31876E+00
  0.31715E-02  0.56351E-02  0.32895E+00
  0.31715E-02  0.56351E-02  0.33914E+00
  0.40283E-03  0.25000E-01  0.31876E+00
  0.40283E-03  0.25000E-01  0.32895E+00
  0.40283E-03  0.25000E-01  0.33914E+00
  0.17871E-02  0.25000E-01  0.31876E+00
  0.17871E-02  0.25000E-01  0.32895E+00
  0.17871E-02  0.25000E-01  0.33914E+00
  0.31715E-02  0.25000E-01  0.31876E+00
  0.31715E-02  0.25000E-01  0.32895E+00
  0.31715E-02  0.25000E-01  0.33914E+00
  0.40283E-03  0.44365E-01  0.31876E+00
  0.40283E-03  0.44365E-01  0.32895E+00
  0.40283E-03  0.44365E-01  0.33914E+00
  0.17871E-02  0.44365E-01  0.31876E+00
  0.17871E-02  0.44365E-01  0.32895E+00
  0.17871E-02  0.44365E-01  0.33914E+00
  0.31715E-02  0.44365E-01  0.31876E+00
  0.31715E-02  0.44365E-01  0.32895E+00
  0.31715E-02  0.44365E-01  0.33914E+00
  0.40283E-03  0.55635E-01  0.31876E+00
  0.40283E-03  0.55635E-01  0.32895E+00
  0.40283E-03  0.55635E-01  0.33914E+00
  0.17871E-02  0.55635E-01  0.31876E+00
  0.17871E-02  0.55635E-01  0.32895E+00
  0.17871E-02  0.55635E-01  0.33914E+00
  0.31715E-02  0.55635E-01  0.31876E+00
  0.31715E-02  0.55635E-01  0.32895E+00
  0.31715E-02  0.55635E-01  0.33914E+00
  0.40283E-03  0.75000E-01  0.31876E+00
  0.40283E-03  0.75000E-01  0.32895E+00
  0.40283E-03  0.75000E-01  0.33914E+00
  0.17871E-02  0.75000E-01  0.31876E+00
  0.17871E-02  0.75000E-01  0.32895E+00
  0.17871E-02  0.75000E-01  0.33914E+00
  0.31715E-02  0.75000E-01  0.31876E+00
  0.31715E-02  0.75000E-01  0.32895E+00
  0.31715E-02  0.75000E-01  0.33914E+00
  0.40283E-03  0.94365E-01  0.31876E+00
  0.40283E-03  0.94365E-01  0.32895E+00
  0.40283E-03  0.94365E-01  0.33914E+00
  0.17871E-02  0.94365E-01  0.31876E+00
  0.17871E-02  0.94365E-01  0.32895E+00
  0.17871E-02  0.94365E-01  0.33914E+00
  0.31715E-02  0.94365E-01  0.31876E+00
  0.31715E-02  0.94365E-01  0.32895E+00
  0.31715E-02  0.94365E-01  0.33914E+00
  0.40283E-03  0.56351E-02  0.29244E+00
  0.40283E-03  0.56351E-02  0.30263E+00
  0.40283E-03  0.56351E-02  0.31282E+00
  0.17871E-02  0.56351E-02  0.29244E+00
  0.17871E-02  0.56351E-02  0.30263E+00
  0.17871E-02  0.56351E-02  0.31282E+00
  0.31715E-02  0.56351E-02  0.29244E+00
  0.31715E-02  0.56351E-02  0.30263E+00
  0.31715E-02  0.56351E-02  0.31282E+00
  0.40283E-03  0.25000E-01  0.29244E+00
  0.40283E-03  0.25000E-01  0.30263E+00
  0.40283E-03  0.25000E-01  0.31282E+00
  0.17871E-02  0.25000E-01  0.29244E+00
  0.17871E-02  0.25000E-01  0.30263E+00
  0.17871E-02  0.25000E-01  0.31282E+00
  0.31715E-02  0.25000E-01  0.29244E+00
  0.31715E-02  0.25000E-01  0.30263E+00
  0.31715E-02  0.25000E-01  0.31282E+00
  0.40283E-03  0.44365E-01  0.29244E+00
  0.40283E-03  0.44365E-01  0.30263E+00
  0.40283E-03  0.44365E-01  0.31282E+00
  0.17871E-02  0.44365E-01  0.29244E+00
  0.17871E-02  0.44365E-01  0.30263E+00
  0.17871E-02  0.44365E-01  0.31282E+00
  0.31715E-02  0.44365E-01  0.29244E+00
  0.31715E-02  0.44365E-01  0.30263E+00
  0.31715E-02  0.44365E-01  0.31282E+00
  0.40283E-03  0.55635E-01  0.29244E+00
  0.40283E-03  0.55635E-01  0.30263E+00
  0.40283E-03  0.55635E-01  0.31282E+00
  0.17871E-02  0.55635E-01  0.29244E+00
  0.17871E-02  0.55635E-01  0.30263E+00
  0.17871E-02  0.55635E-01  0.31282E+00
  0.31715E-02  0.55635E-01  0.29244E+00
  0.31715E-02  0.55635E-01  0.30263E+00
  0.31715E-02  0.55635E-01  0.31282E+00
  0.40283E-03  0.75000E-01  0.29244E+00
  0.40283E-03  0.75000E-01  0.30263E+00
  0.40283E-03  0.75000E-01  0.31282E+00
  0.17871E-02  0.75000E-01  0.29244E+00
  0.17871E-02  0.75000E-01  0.30263E+00
  0.17871E-02  0.75000E-01  0.31282E+00
  0.31715E-02  0.75000E-01  0.29244E+00
  0.31715E-02  0.75000E-01  0.30263E+00
  0.31715E-02  0.75000E-01  0.31282E+00
  0.40283E-03  0.94365E-01  0.29244E+00
  0.40283E-03  0.94365E-01  0.30263E+00
  0.40283E-03  0.94365E-01  0.31282E+00
  0.17871E-02  0.94365E-01  0.29244E+00
  0.17871E-02  0.94365E-01  0.30263E+00
  0.17871E-02  0.94365E-01  0.31282E+00
  0.31715E-02  0.94365E-01  0.29244E+00
  0.31715E-02  0.94365E-01  0.30263E+00
  0.31715E-02  0.94365E-01  0.31282E+00
  0.40283E-03  0.56351E-02  0.26612E+00
  0.40283E-03  0.56351E-02  0.27632E+00
  0.40283E-03  0.56351E-02  0.28651E+00
  0.17871E-02  0.56351E-02  0.26612E+00
  0.17871E-02  0.56351E-02  0.27632E+00
  0.17871E-02  0.56351E-02  0.28651E+00
  0.31715E-02  0.56351E-02  0.26612E+00
  0.31715E-02  0.56351E-02  0.27632E+00
  0.31715E-02  0.56351E-02  0.28651E+00
  0.40283E-03  0.25000E-01  0.26612E+00
  0.40283E-03  0.25000E-01  0.27632E+00
  0.40283E-03  0.25000E-01  0.28651E+00
  0.17871E-02  0.25000E-01  0.26612E+00
  0.17871E-02  0.25000E-01  0.27632E+00
  0.17871E-02  0.25000E-01  0.28651E+00
  0.31715E-02  0.25000E-01  0.26612E+00
  0.31715E-02  0.25000E-01  0.27632E+00
  0.31715E-02  0.25000E-01  0.28651E+00
  0.40283E-03  0.44365E-01  0.26612E+00
  0.40283E-03  0.44365E-01  0.27632E+00
  0.40283E-03  0.44365E-01  0.28651E+00
  0.17871E-02  0.44365E-01  0.26612E+00
  0.17871E-02  0.44365E-01  0.27632E+00
  0.17871E-02  0.44365E-01  0.28651E+00
  0.31715E-02  0.44365E-01  0.26612E+00
  0.31715E-02  0.44365E-01  0.27632E+00
  0.31715E-02  0.44365E-01  0.28651E+00
  0.40283E-03  0.55635E-01  0.26612E+00
  0.40283E-03  0.55635E-01  0.27632E+00
  0.40283E-03  0.55635E-01  0.28651E+00
  0.17871E-02  0.55635E-01  0.26612E+00
  0.17871E-02  0.55635E-01  0.27632E+00
  0.17871E-02  0.55635E-01  0.28651E+00
  0.31715E-02  0.55635E-01  0.26612E+00
  0.31715E-02  0.55635E-01  0.27632E+00
  0.31715E-02  0.55635E-01  0.28651E+00
  0.40283E-03  0.75000E-01  0.26612E+00
  0.40283E-03  0.75000E-01  0.27632E+00
  0.40283E-03  0.75000E-01  0.28651E+00
  0.17871E-02  0.75000E-01  0.26612E+00
  0.17871E-02  0.75000E-01  0.27632E+00
  0.17871E-02  0.75000E-01  0.28651E+00
  0.31715E-02  0.75000E-01  0.26612E+00
  0.31715E-02  0.75000E-01  0.27632E+00
  0.31715E-02  0.75000E-01  0.28651E+00
  0.40283E-03  0.94365E-01  0.26612E+00
  0.40283E-03  0.94365E-01  0.27632E+00
  0.40283E-03  0.94365E-01  0.28651E+00
  0.17871E-02  0.94365E-01  0.26612E+00
  0.17871E-02  0.94365E-01  0.27632E+00
  0.17871E-02  0.94365E-01  0.28651E+00
  0.31715E-02  0.94365E-01  0.26612E+00
  0.31715E-02  0.94365E-01  0.27632E+00
  0.31715E-02  0.94365E-01  0.28651E+00
  0.40283E-03  0.56351E-02  0.23981E+00
  0.40283E-03  0.56351E-02  0.25000E+00
  0.40283E-03  0.56351E-02  0.26019E+00
  0.17871E-02  0.56351E-02  0.23981E+00
  0.17871E-02  0.56351E-02  0.25000E+00
  0.17871E-02  0.56351E-02  0.26019E+00
  0.31715E-02  0.56351E-02  0.23981E+00
  0.31715E-02  0.56351E-02  0.25000E+00
  0.31715E-02  0.56351E-02  0.26019E+00
  0.40283E-03  0.25000E-01  0.23981E+00
  0.40283E-03  0.25000E-01  0.25000E+00
  0.40283E-03  0.25000E-01  0.26019E+00
  0.17871E-02  0.25000E-01  0.23981E+00
  0.17871E-02  0.25000E-01  0.25000E+00
  0.17871E-02  0.25000E-01  0.26019E+00
  0.31715E-02  0.25000E-01  0.23981E+00
  0.31715E-02  0.25000E-01  0.25000E+00
  0.31715E-02  0.25000E-01  0.26019E+00
  0.40283E-03  0.44365E-01  0.23981E+00
  0.40283E-03  0.44365E-01  0.25000E+00
  0.40283E-03  0.44365E-01  0.26019E+00
  0.17871E-02  0.44365E-01  0.23981E+00
  0.17871E-02  0.44365E-01  0.25000E+00
  0.17871E-02  0.44365E-01  0.26019E+00
  0.31715E-02  0.44365E-01  0.23981E+00
  0.31715E-02  0.44365E-01  0.25000E+00
  0.31715E-02  0.44365E-01  0.26019E+00
  0.40283E-03  0.55635E-01  0.23981E+00
  0.40283E-03  0.55635E-01  0.25000E+00
  0.40283E-03  0.55635E-01  0.26019E+00
  0.17871E-02  0.55635E-01  0.23981E+00
  0.17871E-02  0.55635E-01  0.25000E+00
  0.17871E-02  0.55635E-01  0.26019E+00
  0.31715E-02  0.55635E-01  0.23981E+00
  0.31715E-02  0.55635E-01  0.25000E+00
  0.31715E-02  0.55635E-01  0.26019E+00
  0.40283E-03  0.75000E-01  0.23981E+00
  0.40283E-03  0.75000E-01  0.25000E+00
  0.40283E-03  0.75000E-01  0.26019E+00
  0.17871E-02  0.75000E-01  0.23981E+00
  0.17871E-02  0.75000E-01  0.25000E+00
  0.17871E-02  0.75000E-01  0.26019E+00
  0.31715E-02  0.75000E-01  0.23981E+00
  0.31715E-02  0.75000E-01  0.25000E+00
  0.31715E-02  0.75000E-01  0.26019E+00
  0.40283E-03  0.94365E-01  0.23981E+00
  0.40283E-03  0.94365E-01  0.25000E+00
  0.40283E-03  0.94365E-01  0.26019E+00
  0.17871E-02  0.94365E-01  0.23981E+00
  0.17871E-02  0.94365E-01  0.25000E+00
  0.17871E-02  0.94365E-01  0.26019E+00
  0.31715E-02  0.94365E-01  0.23981E+00
  0.31715E-02  0.94365E-01  0.25000E+00
  0.31715E-02  0.94365E-01  0.26019E+00
  0.40283E-03  0.56351E-02  0.21349E+00
  0.40283E-03  0.56351E-02  0.22368E+00
  0.40283E-03  0.56351E-02  0.23388E+00
  0.17871E-02  0.56351E-02  0.21349E+00
  0.17871E-02  0.56351E-02  0.22368E+00
  0.17871E-02  0.56351E-02  0.23388E+00
  0.31715E-02  0.56351E-02  0.21349E+00
  0.31715E-02  0.56351E-02  0.22368E+00
  0.31715E-02  0.56351E-02  0.23388E+00
  0.40283E-03  0.25000E-01  0.21349E+00
  0.40283E-03  0.25000E-01  0.22368E+00
  0.40283E-03  0.25000E-01  0.23388E+00
  0.17871E-02  0.25000E-01  0.21349E+00
  0.17871E-02  0.25000E-01  0.22368E+00
  0.17871E-02  0.25000E-01  0.23388E+00
  0.31715E-02  0.25000E-01  0.21349E+00
  0.31715E-02  0.25000E-01  0.22368E+00
  0.31715E-02  0.25000E-01  0.23388E+00
  0.40283E-03  0.44365E-01  0.21349E+00
  0.40283E-03  0.44365E-01  0.22368E+00
  0.40283E-03  0.44365E-01  0.23388E+00
  0.17871E-02  0.44365E-01  0.21349E+00
  0.17871E-02  0.44365E-01  0.22368E+00
  0.17871E-02  0.44365E-01  0.23388E+00
  0.31715E-02  0.44365E-01  0.21349E+00
  0.31715E-02  0.44365E-01  0.22368E+00
  0.31715E-02  0.44365E-01  0.23388E+00
  0.40283E-03  0.55635E-01  0.21349E+00
  0.40283E-03  0.55635E-01  0.22368E+00
  0.40283E-03  0.55635E-01  0.23388E+00
  0.17871E-02  0.55635E-01  0.21349E+00
  0.17871E-02  0.55635E-01  0.22368E+00
  0.17871E-02  0.55635E-01  0.23388E+00
  0.31715E-02  0.55635E-01  0.21349E+00
  0.31715E-02  0.55635E-01  0.22368E+00
  0.31715E-02  0.55635E-01  0.23388E+00
  0.40283E-03  0.75000E-01  0.21349E+00
  0.40283E-03  0.75000E-01  0.22368E+00
  0.40283E-03  0.75000E-01  0.23388E+00
  0.17871E-02  0.75000E-01  0.21349E+00
  0.17871E-02  0.75000E-01  0.22368E+00
  0.17871E-02  0.75000E-01  0.23388E+00
  0.31715E-02  0.75000E-01  0.21349E+00
  0.31715E-02  0.75000E-01  0.22368E+00
  0.31715E-02  0.75000E-01  0.23388E+00
  0.40283E-03  0.94365E-01  0.21349E+00
  0.40283E-03  0.94365E-01  0.22368E+00
  0.40283E-03  0.94365E-01  0.23388E+00
  0.17871E-02  0.94365E-01  0.21349E+00
  0.17871E-02  0.94365E-01  0.22368E+00
  0.17871E-02  0.94365E-01  0.23388E+00
  0.31715E-02  0.94365E-01  0.21349E+00
  0.31715E-02  0.94365E-01  0.22368E+00
  0.31715E-02  0.94365E-01  0.23388E+00
  0.40283E-03  0.56351E-02  0.18718E+00
  0.40283E-03  0.56351E-02  0.19737E+00
  0.40283E-03  0.56351E-02  0.20756E+00
  0.17871E-02  0.56351E-02  0.18718E+00
  0.17871E-02  0.56351E-02  0.19737E+00
  0.17871E-02  0.56351E-02  0.20756E+00
  0.31715E-02  0.56351E-02  0.18718E+00
  0.31715E-02  0.56351E-02  0.19737E+00
  0.31715E-02  0.56351E-02  0.20756E+00
  0.40283E-03  0.25000E-01  0.18718E+00
  0.40283E-03  0.25000E-01  0.19737E+00
  0.40283E-03  0.25000E-01  0.20756E+00
  0.17871E-02  0.25000E-01  0.18718E+00
  0.17871E-02  0.25000E-01  0.19737E+00
  0.17871E-02  0.25000E-01  0.20756E+00
  0.31715E-02  0.25000E-01  0.18718E+00
  0.31715E-02  0.25000E-01  0.19737E+00
  0.31715E-02  0.25000E-01  0.20756E+00
  0.40283E-03  0.44365E-01  0.18718E+00
  0.40283E-03  0.44365E-01  0.19737E+00
  0.40283E-03  0.44365E-01  0.20756E+00
  0.17871E-02  0.44365E-01  0.18718E+00
  0.17871E-02  0.44365E-01  0.19737E+00
  0.17871E-02  0.44365E-01  0.20756E+00
  0.31715E-02  0.44365E-01  0.18718E+00
  0.31715E-02  0.44365E-01  0.19737E+00
  0.31715E-02  0.44365E-01  0.20756E+00
  0.40283E-03  0.55635E-01  0.18718E+00
  0.40283E-03  0.55635E-01  0.19737E+00
  0.40283E-03  0.55635E-01  0.20756E+00
  0.17871E-02  0.55635E-01  0.18718E+00
  0.17871E-02  0.55635E-01  0.19737E+00
  0.17871E-02  0.55635E-01  0.20756E+00
  0.31715E-02  0.55635E-01  0.18718E+00
  0.31715E-02  0.55635E-01  0.19737E+00
  0.31715E-02  0.55635E-01  0.20756E+00
  0.40283E-03  0.75000E-01  0.18718E+00
  0.40283E-03  0.75000E-01  0.19737E+00
  0.40283E-03  0.75000E-01  0.20756E+00
  0.17871E-02  0.75000E-01  0.18718E+00
  0.17871E-02  0.75000E-01  0.19737E+00
  0.17871E-02  0.75000E-01  0.20756E+00
  0.31715E-02  0.75000E-01  0.18718E+00
  0.31715E-02  0.75000E-01  0.19737E+00
  0.31715E-02  0.75000E-01  0.20756E+00
  0.40283E-03  0.94365E-01  0.18718E+00
  0.40283E-03  0.94365E-01  0.19737E+00
  0.40283E-03  0.94365E-01  0.20756E+00
  0.17871E-02  0.94365E-01  0.18718E+00
  0.17871E-02  0.94365E-01  0.19737E+00
  0.17871E-02  0.94365E-01  0.20756E+00
  0.31715E-02  0.94365E-01  0.18718E+00
  0.31715E-02  0.94365E-01  0.19737E+00
  0.31715E-02  0.94365E-01  0.20756E+00
  0.40283E-03  0.56351E-02  0.16086E+00
  0.40283E-03  0.56351E-02  0.17105E+00
  0.40283E-03  0.56351E-02  0.18124E+00
  0.17871E-02  0.56351E-02  0.16086E+00
  0.17871E-02  0.56351E-02  0.17105E+00
  0.17871E-02  0.56351E-02  0.18124E+00
  0.31715E-02  0.56351E-02  0.16086E+00
  0.31715E-02  0.56351E-02  0.17105E+00
  0.31715E-02  0.56351E-02  0.18124E+00
  0.40283E-03  0.25000E-01  0.16086E+00
  0.40283E-03  0.25000E-01  0.17105E+00
  0.40283E-03  0.25000E-01  0.18124E+00
  0.17871E-02  0.25000E-01  0.16086E+00
  0.17871E-02  0.25000E-01  0.17105E+00
  0.17871E-02  0.25000E-01  0.18124E+00
  0.31715E-02  0.25000E-01  0.16086E+00
  0.31715E-02  0.25000E-01  0.17105E+00
  0.31715E-02  0.25000E-01  0.18124E+00
  0.40283E-03  0.44365E-01  0.16086E+00
  0.40283E-03  0.44365E-01  0.17105E+00
  0.40283E-03  0.44365E-01  0.18124E+00
  0.17871E-02  0.44365E-01  0.16086E+00
  0.17871E-02  0.44365E-01  0.17105E+00
  0.17871E-02  0.44365E-01  0.18124E+00
  0.31715E-02  0.44365E-01  0.16086E+00
  0.31715E-02  0.44365E-01  0.17105E+00
  0.31715E-02  0.44365E-01  0.18124E+00
  0.40283E-03  0.55635E-01  0.16086E+00
  0.40283E-03  0.55635E-01  0.17105E+00
  0.40283E-03  0.55635E-01  0.18124E+00
  0.17871E-02  0.55635E-01  0.16086E+00
  0.17871E-02  0.55635E-01  0.17105E+00
  0.17871E-02  0.55635E-01  0.18124E+00
  0.31715E-02  0.55635E-01  0.16086E+00
  0.31715E-02  0.55635E-01  0.17105E+00
  0.31715E-02  0.55635E-01  0.18124E+00
  0.40283E-03  0.75000E-01  0.16086E+00
  0.40283E-03  0.75000E-01  0.17105E+00
  0.40283E-03  0.75000E-01  0.18124E+00
  0.17871E-02  0.75000E-01  0.16086E+00
  0.17871E-02  0.75000E-01  0.17105E+00
  0.17871E-02  0.75000E-01  0.18124E+00
  0.31715E-02  0.75000E-01  0.16086E+00
  0.31715E-02  0.75000E-01  0.17105E+00
  0.31715E-02  0.75000E-01  0.18124E+00
  0.40283E-03  0.94365E-01  0.16086E+00
  0.40283E-03  0.94365E-01  0.17105E+00
  0.40283E-03  0.94365E-01  0.18124E+00
  0.17871E-02  0.94365E-01  0.16086E+00
  0.17871E-02  0.94365E-01  0.17105E+00
  0.17871E-02  0.94365E-01  0.18124E+00
  0.31715E-02  0.94365E-01  0.16086E+00
  0.31715E-02  0.94365E-01  0.17105E+00
  0.31715E-02  0.94365E-01  0.18124E+00
  0.40283E-03  0.56351E-02  0.13454E+00
  0.40283E-03  0.56351E-02  0.14474E+00
  0.40283E-03  0.56351E-02  0.15493E+00
  0.17871E-02  0.56351E-02  0.13454E+00
  0.17871E-02  0.56351E-02  0.14474E+00
  0.17871E-02  0.56351E-02  0.15493E+00
  0.31715E-02  0.56351E-02  0.13454E+00
  0.31715E-02  0.56351E-02  0.14474E+00
  0.31715E-02  0.56351E-02  0.15493E+00
  0.40283E-03  0.25000E-01  0.13454E+00
  0.40283E-03  0.25000E-01  0.14474E+00
  0.40283E-03  0.25000E-01  0.15493E+00
  0.17871E-02  0.25000E-01  0.13454E+00
  0.17871E-02  0.25000E-01  0.14474E+00
  0.17871E-02  0.25000E-01  0.15493E+00
  0.31715E-02  0.25000E-01  0.13454E+00
  0.31715E-02  0.25000E-01  0.14474E+00
  0.31715E-02  0.25000E-01  0.15493E+00
  0.40283E-03  0.44365E-01  0.13454E+00
  0.40283E-03  0.44365E-01  0.14474E+00
  0.40283E-03  0.44365E-01  0.15493E+00
  0.17871E-02  0.44365E-01  0.13454E+00
  0.17871E-02  0.44365E-01  0.14474E+00
  0.17871E-02  0.44365E-01  0.15493E+00
  0.31715E-02  0.44365E-01  0.13454E+00
  0.31715E-02  0.44365E-01  0.14474E+00
  0.31715E-02  0.44365E-01  0.15493E+00
  0.40283E-03  0.55635E-01  0.13454E+00
  0.40283E-03  0.55635E-01  0.14474E+00
  0.40283E-03  0.55635E-01  0.15493E+00
  0.17871E-02  0.55635E-01  0.13454E+00
  0.17871E-02  0.55635E-01  0.14474E+00
  0.17871E-02  0.55635E-01  0.15493E+00
  0.31715E-02  0.55635E-01  0.13454E+00
  0.31715E-02  0.55635E-01  0.14474E+00
  0.31715E-02  0.55635E-01  0.15493E+00
  0.40283E-03  0.75000E-01  0.13454E+00
  0.40283E-03  0.75000E-01  0.14474E+00
  0.40283E-03  0.75000E-01  0.15493E+00
  0.17871E-02  0.75000E-01  0.13454E+00
  0.17871E-02  0.75000E-01  0.14474E+00
  0.17871E-02  0.75000E-01  0.15493E+00
  0.31715E-02  0.75000E-01  0.13454E+00
  0.31715E-02  0.75000E-01  0.14474E+00
  0.31715E-02  0.75000E-01  0.15493E+00