# vtk DataFile Version 2.0
Nodes
ASCII
DATASET UNSTRUCTURED_GRID
POINTS 490 float
-1.30104e-18 2.60209e-18 5.63785e-18 0.0276393 -1.0842e-18 1.19262e-18 0.0723607 0 8.67362e-19 0.1 -1.73472e-18
4.33681e-18 8.67362e-18 0.0276393 7.58942e-19 0.0276393 0.0276393 -8.13152e-20 0.0723607 0.0276393 2.1684e-19
0.1 0.0276393 0 6.93889e-18 0.0723607 8.67362e-19 0.0276393 0.0723607 -2.1684e-19 0.0723607
0.0723607 0 0.1 0.0723607 0 0 0.1 4.33681e-18 0.0276393 0.1
-4.33681e-19 0.0723607 0.1 0 0.1 0.1 0 -1.95156e-18 1.51788e-18 0.0138197
0.0276393 -1.0842e-18 0.0138197 0.0723607 -4.33681e-19 0.0138197 0.1 0 0.0138197 4.39102e-18
0.0276393 0.0138197 0.0276393 0.0276393 0.0138197 0.0723607 0.0276393 0.0138197 0.1 0.0276393
0.0138197 3.90313e-18 0.0723607 0.0138197 0.0276393 0.0723607 0.0138197 0.0723607 0.0723607 0.0138197
0.1 0.0723607 0.0138197 0 0.1 0.0138197 0.0276393 0.1 0.0138197 0.0723607
0.1 0.0138197 0.1 0.1 0.0138197 -1.73472e-18 1.73472e-18 0.0361803 0.0276393 -8.67362e-19
0.0361803 0.0723607 0 0.0361803 0.1 0 0.0361803 3.90313e-18 0.0276393 0.0361803
0.0276393 0.0276393 0.0361803 0.0723607 0.0276393 0.0361803 0.1 0.0276393 0.0361803 3.46945e-18
0.0723607 0.0361803 0.0276393 0.0723607 0.0361803 0.0723607 0.0723607 0.0361803 0.1 0.0723607
0.0361803 0 0.1 0.0361803 0.0276393 0.1 0.0361803 0.0723607 0.1 0.0361803
0.1 0.1 0.0361803 -1.73472e-18 1.73472e-18 0.05 0.0276393 -8.67362e-19 0.05 0.0723607
0 0.05 0.1 0 0.05 7.80626e-18 0.0276393 0.05 0.0276393 0.0276393
0.05 0.0723607 0.0276393 0.05 0.1 0.0276393 0.05 6.93889e-18 0.0723607 0.05
0.0276393 0.0723607 0.05 0.0723607 0.0723607 0.05 0.1 0.0723607 0.05 0
0.1 0.05 0.0276393 0.1 0.05 0.0723607 0.1 0.05 0.1 0.1
0.05 0.127639 -1.0842e-18 1.19262e-18 0.172361 0 8.67362e-19 0.2 -1.73472e-18 4.33681e-18
0.127639 0.0276393 -8.13152e-20 0.172361 0.0276393 2.1684e-19 0.2 0.0276393 0 0.127639
0.0723607 -2.1684e-19 0.172361 0.0723607 0 0.2 0.0723607 0 0.127639 0.1
-4.33681e-19 0.172361 0.1 0 0.2 0.1 0 0.127639 -1.0842e-18 0.0138197
0.172361 -4.33681e-19 0.0138197 0.2 0 0.0138197 0.127639 0.0276393 0.0138197 0.172361
0.0276393 0.0138197 0.2 0.0276393 0.0138197 0.127639 0.0723607 0.0138197 0.172361 0.0723607
0.0138197 0.2 0.0723607 0.0138197 0.127639 0.1 0.0138197 0.172361 0.1 0.0138197
0.2 0.1 0.0138197 0.127639 -8.67362e-19 0.0361803 0.172361 0 0.0361803 0.2
0 0.0361803 0.127639 0.0276393 0.0361803 0.172361 0.0276393 0.0361803 0.2 0.0276393
0.0361803 0.127639 0.0723607 0.0361803 0.172361 0.0723607 0.0361803 0.2 0.0723607 0.0361803
0.127639 0.1 0.0361803 0.172361 0.1 0.0361803 0.2 0.1 0.0361803 0.127639
-8.67362e-19 0.05 0.172361 0 0.05 0.2 0 0.05 0.127639 0.0276393
0.05 0.172361 0.0276393 0.05 0.2 0.0276393 0.05 0.127639 0.0723607 0.05
0.172361 0.0723607 0.05 0.2 0.0723607 0.05 0.127639 0.1 0.05 0.172361
0.1 0.05 0.2 0.1 0.05 0.227639 -1.0842e-18 1.19262e-18 0.272361 0
8.67362e-19 0.3 -1.73472e-18 4.33681e-18 0.227639 0.0276393 -8.13152e-20 0.272361 0.0276393 2.1684e-19
0.3 0.0276393 0 0.227639 0.0723607 -2.1684e-19 0.272361 0.0723607 0 0.3
0.0723607 0 0.227639 0.1 -4.33681e-19 0.272361 0.1 0 0.3 0.1
0 0.227639 -1.0842e-18 0.0138197 0.272361 -4.33681e-19 0.0138197 0.3 0 0.0138197
0.227639 0.0276393 0.0138197 0.272361 0.0276393 0.0138197 0.3 0.0276393 0.0138197 0.227639
0.0723607 0.0138197 0.272361 0.0723607 0.0138197 0.3 0.0723607 0.0138197 0.227639 0.1
0.0138197 0.272361 0.1 0.0138197 0.3 0.1 0.0138197 0.227639 -8.67362e-19 0.0361803
0.272361 0 0.0361803 0.3 0 0.0361803 0.227639 0.0276393 0.0361803 0.272361
0.0276393 0.0361803 0.3 0.0276393 0.0361803 0.227639 0.0723607 0.0361803 0.272361 0.0723607
0.0361803 0.3 0.0723607 0.0361803 0.227639 0.1 0.0361803 0.272361 0.1 0.0361803
0.3 0.1 0.0361803 0.227639 -8.67362e-19 0.05 0.272361 0 0.05 0.3
0 0.05 0.227639 0.0276393 0.05 0.272361 0.0276393 0.05 0.3 0.0276393
0.05 0.227639 0.0723607 0.05 0.272361 0.0723607 0.05 0.3 0.0723607 0.05
0.227639 0.1 0.05 0.272361 0.1 0.05 0.3 0.1 0.05 8.67362e-18
0.127639 7.58942e-19 0.0276393 0.127639 -8.13152e-20 0.0723607 0.127639 2.1684e-19 0.1 0.127639
0 6.93889e-18 0.172361 8.67362e-19 0.0276393 0.172361 -2.1684e-19 0.0723607 0.172361 0
0.1 0.172361 0 0 0.2 4.33681e-18 0.0276393 0.2 -4.33681e-19 0.0723607
0.2 0 0.1 0.2 0 4.39102e-18 0.127639 0.0138197 0.0276393 0.127639
0.0138197 0.0723607 0.127639 0.0138197 0.1 0.127639 0.0138197 3.90313e-18 0.172361 0.0138197
0.0276393 0.172361 0.0138197 0.0723607 0.172361 0.0138197 0.1 0.172361 0.0138197 0
0.2 0.0138197 0.0276393 0.2 0.0138197 0.0723607 0.2 0.0138197 0.1 0.2
0.0138197 3.90313e-18 0.127639 0.0361803 0.0276393 0.127639 0.0361803 0.0723607 0.127639 0.0361803
0.1 0.127639 0.0361803 3.46945e-18 0.172361 0.0361803 0.0276393 0.172361 0.0361803 0.0723607
0.172361 0.0361803 0.1 0.172361 0.0361803 0 0.2 0.0361803 0.0276393 0.2
0.0361803 0.0723607 0.2 0.0361803 0.1 0.2 0.0361803 7.80626e-18 0.127639 0.05
0.0276393 0.127639 0.05 0.0723607 0.127639 0.05 0.1 0.127639 0.05 6.93889e-18
0.172361 0.05 0.0276393 0.172361 0.05 0.0723607 0.172361 0.05 0.1 0.172361
0.05 0 0.2 0.05 0.0276393 0.2 0.05 0.0723607 0.2 0.05
0.1 0.2 0.05 0.127639 0.127639 -8.13152e-20 0.172361 0.127639 2.1684e-19 0.2
0.127639 0 0.127639 0.172361 -2.1684e-19 0.172361 0.172361 0 0.2 0.172361
0 0.127639 0.2 -4.33681e-19 0.172361 0.2 0 0.2 0.2 0
0.127639 0.127639 0.0138197 0.172361 0.127639 0.0138197 0.2 0.127639 0.0138197 0.127639
0.172361 0.0138197 0.172361 0.172361 0.0138197 0.2 0.172361 0.0138197 0.127639 0.2
0.0138197 0.172361 0.2 0.0138197 0.2 0.2 0.0138197 0.127639 0.127639 0.0361803
0.172361 0.127639 0.0361803 0.2 0.127639 0.0361803 0.127639 0.172361 0.0361803 0.172361
0.172361 0.0361803 0.2 0.172361 0.0361803 0.127639 0.2 0.0361803 0.172361 0.2
0.0361803 0.2 0.2 0.0361803 0.127639 0.127639 0.05 0.172361 0.127639 0.05
0.2 0.127639 0.05 0.127639 0.172361 0.05 0.172361 0.172361 0.05 0.2
0.172361 0.05 0.127639 0.2 0.05 0.172361 0.2 0.05 0.2 0.2
0.05 0.227639 0.127639 -8.13152e-20 0.272361 0.127639 2.1684e-19 0.3 0.127639 0
0.227639 0.172361 -2.1684e-19 0.272361 0.172361 0 0.3 0.172361 0 0.227639
0.2 -4.33681e-19 0.272361 0.2 0 0.3 0.2 0 0.227639 0.127639
0.0138197 0.272361 0.127639 0.0138197 0.3 0.127639 0.0138197 0.227639 0.172361 0.0138197
0.272361 0.172361 0.0138197 0.3 0.172361 0.0138197 0.227639 0.2 0.0138197 0.272361
0.2 0.0138197 0.3 0.2 0.0138197 0.227639 0.127639 0.0361803 0.272361 0.127639
0.0361803 0.3 0.127639 0.0361803 0.227639 0.172361 0.0361803 0.272361 0.172361 0.0361803
0.3 0.172361 0.0361803 0.227639 0.2 0.0361803 0.272361 0.2 0.0361803 0.3
0.2 0.0361803 0.227639 0.127639 0.05 0.272361 0.127639 0.05 0.3 0.127639
0.05 0.227639 0.172361 0.05 0.272361 0.172361 0.05 0.3 0.172361 0.05
0.227639 0.2 0.05 0.272361 0.2 0.05 0.3 0.2 0.05 -1.95156e-18
1.51788e-18 0.0638197 0.0276393 -1.0842e-18 0.0638197 0.0723607 -4.33681e-19 0.0638197 0.1 0
0.0638197 4.39102e-18 0.0276393 0.0638197 0.0276393 0.0276393 0.0638197 0.0723607 0.0276393 0.0638197
0.1 0.0276393 0.0638197 3.90313e-18 0.0723607 0.0638197 0.0276393 0.0723607 0.0638197 0.0723607
0.0723607 0.0638197 0.1 0.0723607 0.0638197 0 0.1 0.0638197 0.0276393 0.1
0.0638197 0.0723607 0.1 0.0638197 0.1 0.1 0.0638197 -1.73472e-18 1.73472e-18 0.0861803
0.0276393 -8.67362e-19 0.0861803 0.0723607 0 0.0861803 0.1 0 0.0861803 3.90313e-18
0.0276393 0.0861803 0.0276393 0.0276393 0.0861803 0.0723607 0.0276393 0.0861803 0.1 0.0276393
0.0861803 3.46945e-18 0.0723607 0.0861803 0.0276393 0.0723607 0.0861803 0.0723607 0.0723607 0.0861803
0.1 0.0723607 0.0861803 0 0.1 0.0861803 0.0276393 0.1 0.0861803 0.0723607
0.1 0.0861803 0.1 0.1 0.0861803 -1.73472e-18 1.73472e-18 0.1 0.0276393 -8.67362e-19
0.1 0.0723607 0 0.1 0.1 0 0.1 7.80626e-18 0.0276393 0.1
0.0276393 0.0276393 0.1 0.0723607 0.0276393 0.1 0.1 0.0276393 0.1 6.93889e-18
0.0723607 0.1 0.0276393 0.0723607 0.1 0.0723607 0.0723607 0.1 0.1 0.0723607
0.1 0 0.1 0.1 0.0276393 0.1 0.1 0.0723607 0.1 0.1
0.1 0.1 0.1 0.127639 -1.0842e-18 0.0638197 0.172361 -4.33681e-19 0.0638197 0.2
0 0.0638197 0.127639 0.0276393 0.0638197 0.172361 0.0276393 0.0638197 0.2 0.0276393
0.0638197 0.127639 0.0723607 0.0638197 0.172361 0.0723607 0.0638197 0.2 0.0723607 0.0638197
0.127639 0.1 0.0638197 0.172361 0.1 0.0638197 0.2 0.1 0.0638197 0.127639
-8.67362e-19 0.0861803 0.172361 0 0.0861803 0.2 0 0.0861803 0.127639 0.0276393
0.0861803 0.172361 0.0276393 0.0861803 0.2 0.0276393 0.0861803 0.127639 0.0723607 0.0861803
0.172361 0.0723607 0.0861803 0.2 0.0723607 0.0861803 0.127639 0.1 0.0861803 0.172361
0.1 0.0861803 0.2 0.1 0.0861803 0.127639 -8.67362e-19 0.1 0.172361 0
0.1 0.2 0 0.1 0.127639 0.0276393 0.1 0.172361 0.0276393 0.1
0.2 0.0276393 0.1 0.127639 0.0723607 0.1 0.172361 0.0723607 0.1 0.2
0.0723607 0.1 0.127639 0.1 0.1 0.172361 0.1 0.1 0.2 0.1
0.1 0.227639 -1.0842e-18 0.0638197 0.272361 -4.33681e-19 0.0638197 0.3 0 0.0638197
0.227639 0.0276393 0.0638197 0.272361 0.0276393 0.0638197 0.3 0.0276393 0.0638197 0.227639
0.0723607 0.0638197 0.272361 0.0723607 0.0638197 0.3 0.0723607 0.0638197 0.227639 0.1
0.0638197 0.272361 0.1 0.0638197 0.3 0.1 0.0638197 0.227639 -8.67362e-19 0.0861803
0.272361 0 0.0861803 0.3 0 0.0861803 0.227639 0.0276393 0.0861803 0.272361
0.0276393 0.0861803 0.3 0.0276393 0.0861803 0.227639 0.0723607 0.0861803 0.272361 0.0723607
0.0861803 0.3 0.0723607 0.0861803 0.227639 0.1 0.0861803 0.272361 0.1 0.0861803
0.3 0.1 0.0861803 0.227639 -8.67362e-19 0.1 0.272361 0 0.1 0.3
0 0.1 0.227639 0.0276393 0.1 0.272361 0.0276393 0.1 0.3 0.0276393
0.1 0.227639 0.0723607 0.1 0.272361 0.0723607 0.1 0.3 0.0723607 0.1
0.227639 0.1 0.1 0.272361 0.1 0.1 0.3 0.1 0.1 4.39102e-18
0.127639 0.0638197 0.0276393 0.127639 0.0638197 0.0723607 0.127639 0.0638197 0.1 0.127639
0.0638197 3.90313e-18 0.172361 0.0638197 0.0276393 0.172361 0.0638197 0.0723607 0.172361 0.0638197
0.1 0.172361 0.0638197 0 0.2 0.0638197 0.0276393 0.2 0.0638197 0.0723607
0.2 0.0638197 0.1 0.2 0.0638197 3.90313e-18 0.127639 0.0861803 0.0276393 0.127639
0.0861803 0.0723607 0.127639 0.0861803 0.1 0.127639 0.0861803 3.46945e-18 0.172361 0.0861803
[...]
CELL_DATA 324
FIELD attributes 5
cellID 1 324 int
0 1 2 3 4 5 6 7 8 9 10
11 12 13 14 15 16 17 18 19 20
21 22 23 24 25 26 27 28 29 30
31 32 33 34 35 36 37 38 39 40
41 42 43 44 45 46 47 48 49 50
51 52 53 54 55 56 57 58 59 60
61 62 63 64 65 66 67 68 69 70
71 72 73 74 75 76 77 78 79 80
81 82 83 84 85 86 87 88 89 90
91 92 93 94 95 96 97 98 99 100
101 102 103 104 105 106 107 108 109 110
111 112 113 114 115 116 117 118 119 120
121 122 123 124 125 126 127 128 129 130
131 132 133 134 135 136 137 138 139 140
141 142 143 144 145 146 147 148 149 150
151 152 153 154 155 156 157 158 159 160
161 162 163 164 165 166 167 168 169 170
171 172 173 174 175 176 177 178 179 180
181 182 183 184 185 186 187 188 189 190
191 192 193 194 195 196 197 198 199 200
201 202 203 204 205 206 207 208 209 210
211 212 213 214 215 216 217 218 219 220
221 222 223 224 225 226 227 228 229 230
231 232 233 234 235 236 237 238 239 240
241 242 243 244 245 246 247 248 249 250
251 252 253 254 255 256 257 258 259 260
261 262 263 264 265 266 267 268 269 270
271 272 273 274 275 276 277 278 279 280
281 282 283 284 285 286 287 288 289 290
291 292 293 294 295 296 297 298 299 300
301 302 303 304 305 306 307 308 309 310
311 312 313 314 315 316 317 318 319 320
321 322 323 
rho 1 324 float
0.568384 0.507828 0.6413 0.551372 0.589307 0.615532 0.598383 1.00817 0.635063 0.797558 1.21997
0.677934 0.903818 1.15802 0.676185 0.928404 1.45628 0.743439 1.08384 2.00041 0.855192
1.37594 1.49626 0.878832 1.07803 0.799726 0.735551 0.571018 0.510439 0.646317 0.558755
0.589319 0.623038 0.585119 0.967429 0.634975 0.706357 1.15319 0.658568 0.771462 1.11003
0.647261 0.821417 1.41006 0.715424 0.990376 1.89459 0.817004 1.21265 1.4139 0.816378
0.975975 0.771196 0.702127 0.560756 0.510142 0.84458 0.569378 0.589881 0.830005 0.604734
0.987537 0.782538 0.772273 1.19041 0.828671 0.863223 1.15367 0.876029 0.92532 1.47706
0.925494 1.08699 1.96914 0.942537 1.33183 1.47599 0.998391 1.10356 0.818936 0.909629
0.553016 0.467419 0.625564 0.560091 0.594113 0.622253 0.5992 0.89656 0.612103 0.649341
1.03961 0.601285 0.849696 1.21355 0.676641 1.12444 1.59175 0.856207 0.997701 1.91925
0.779391 1.3288 1.53656 0.863458 1.25127 0.942395 0.847189 0.55897 0.472159 0.630377
0.567744 0.595503 0.630595 0.585692 0.870951 0.618651 0.599303 0.992052 0.60111 0.742602
1.16206 0.667604 0.96069 1.5315 0.817772 0.917168 1.81256 0.759387 1.17699 1.44202
0.824744 1.11515 0.896507 0.807855 0.561462 0.496726 0.818334 0.599342 0.615247 0.842887
0.623554 0.87559 0.799531 0.664152 0.984609 0.794399 0.841673 1.15305 0.904084 1.06499
1.40628 1.02521 0.941281 1.59187 0.871892 1.1855 1.30324 0.969457 1.16038 0.806323
0.974063 0.411261 0.296868 0.519115 0.366084 0.382367 0.49426 0.427321 0.781642 0.532954
0.616352 1.03683 0.551962 0.670074 0.911911 0.497265 0.644633 1.80785 0.576882 2.11469
2.43825 1.927 2.43825 2.43825 2.43825 2.43825 2.43825 2.43825 0.443438 0.301481
0.528416 0.408102 0.387399 0.507577 0.456493 0.73605 0.54017 0.611874 0.951535 0.554122
0.606845 0.851065 0.481034 0.605697 1.71061 0.568122 1.6447 2.43825 1.66636 2.43825
2.43825 2.43825 2.43825 2.43825 2.41032 0.430302 0.300456 0.718677 0.406933 0.383434
0.697463 0.456856 0.729363 0.690839 0.644786 0.960613 0.732198 0.66391 0.851744 0.700692
0.647648 1.59281 0.73173 1.65662 2.43825 1.73239 2.43825 2.43825 2.43825 2.43825
2.43825 2.39517 0.424775 0.298919 0.532603 0.379381 0.377914 0.501774 0.39523 0.640432
0.501866 0.51602 0.864807 0.52851 0.627566 0.998468 0.502646 0.818917 1.84419 0.645297
1.54423 2.43825 1.27116 2.43825 2.43825 2.43825 2.43825 2.43825 2.43825 0.450482
0.304959 0.541156 0.420537 0.387079 0.516891 0.436138 0.626833 0.516473 0.52655 0.816051
0.529621 0.588717 0.928369 0.465616 0.717169 1.76279 0.584139 1.26889 2.43825 1.12288
2.43825 2.43825 2.43825 2.43825 2.43825 2.43825 0.451338 0.303581 0.693607 0.417019
0.379281 0.675111 0.431155 0.791186 0.667324 0.566142 1.33868 0.69551 0.891193 1.38651
0.74429 1.06931 2.43825 0.920977 1.84186 2.43825 1.55349 2.43825 2.43825 2.43825
2.43825 2.43825 2.43825 
p 1 324 float
47239.9 42207 53300.3 45826 48978.9 51158.5 49733.2 83791.6 52781.9 66287.2 101395
56344.9 75118.8 96246.6 56199.6 77162.2 121035 61789.2 90080.9 166260 71077.4
114358 124358 73042.2 89598.3 66467.5 61133.6 47458.9 42424 53717.2 46439.6
48980 51782.4 48630.9 80405.7 52774.5 58707.3 95845.1 54735.4 64118.4 92257.9
53795.6 68270.2 117194 59460.9 82312.9 157465 67903.4 100786 117513 67851.4
81116 64096.3 58355.7 46606 42399.3 70195.4 47322.6 49026.6 68984 50261.1
82076.9 65038.9 64185.7 98938.6 68873.1 71744.9 95884.6 72809.2 76905.9 122762
76920.4 90342.4 163661 78336.9 110692 122674 82979.1 91720.1 68064.1 75601.8
45962.7 38848.5 51992.4 46550.7 49378.4 51717.2 49801.2 74515.6 50873.6 53968.5
86404.8 49974.5 70620.6 100862 56237.5 93455.1 132295 71161.7 82921.7 159514
64777.3 110440 127708 71764.4 103996 78325 70412.2 46457.5 39242.4 52392.4
47186.8 49493.9 52410.5 48678.5 72387.1 51417.8 49809.7 82452.2 49959.9 61719.7
96581.8 55486.4 79845.6 127287 67967.3 76228.3 150647 63114.7 97822.8 119850
68546.8 92683.6 74511.2 67143.1 46664.7 41284.3 68014 49812.9 51134.9 70054.6
51825.3 72772.7 66451.2 55199.5 81833.6 66024.7 69953.8 95833.3 75140.9 88514.2
116880 85208 78232.4 132305 72465.4 98530.1 108316 80574.2 96442.8 67015.8
80957.1 34181 24673.5 43145.1 30426.3 31779.6 41079.4 35515.8 64964.5 44295.2
51226.7 86173.8 45875.1 55691.7 75791.5 41329.1 53577.2 150255 47946.3 175757
202650 160158 202650 202650 202650 202650 202650 202650 36855.4 25056.9
43918.1 33918.5 32197.8 42186.1 37940.4 61175.2 44895.1 50854.6 79084.7 46054.6
50436.6 70734.4 39980.1 50341.1 142173 47218.2 136695 202650 138495 202650
202650 202650 202650 202650 200328 35763.5 24971.7 59731.2 33821.3 31868.2
57968.1 37970.6 60619.4 57417.5 53589.9 79839.2 60855 55179.4 70790.8 58236.5
53827.8 132383 60816.1 137687 202650 143984 202650 202650 202650 202650
202650 199069 35304.2 24844 44266.1 31531.4 31409.5 41703.8 32848.6 53228.1
41711.4 42887.8 71876.5 43925.9 52158.7 82985.5 41776.3 68062.5 153276 53632.4
128345 202650 105650 202650 202650 202650 202650 202650 202650 37440.8
25346 44976.9 34952 32171.2 42960.2 36248.6 52097.8 42925.5 43763 67824.2
44018.2 48929.9 77159.3 38698.6 59605.9 146511 48549.4 105461 202650 93325.4
202650 202650 202650 202650 202650 202650 37511.9 25231.4 57647.6 34659.6
31523.1 56110.3 35834.5 65757.7 55463.2 47053.7 111262 57805.8 74069.5 115237
61860 88873.2 202650 76544.9 153082 202650 129114 202650 202650 202650
202650 202650 202650 
T 1 324 float
288.889 288.889 288.889 288.889 288.889 288.889 288.889 288.889 288.889 288.889 288.889
288.889 288.889 288.889 288.889 288.889 288.889 288.889 288.889 288.889 288.889
288.889 288.889 288.889 288.889 288.889 288.889 288.889 288.889 288.889 288.889
288.889 288.889 288.889 288.889 288.889 288.889 288.889 288.889 288.889 288.889
288.889 288.889 288.889 288.889 288.889 288.889 288.889 288.889 288.889 288.889
288.889 288.889 288.889 288.889 288.889 288.889 288.889 288.889 288.889 288.889
288.889 288.889 288.889 288.889 288.889 288.889 288.889 288.889 288.889 288.889
288.889 288.889 288.889 288.889 288.889 288.889 288.889 288.889 288.889 288.889
288.889 288.889 288.889 288.889 288.889 288.889 288.889 288.889 288.889 288.889
288.889 288.889 288.889 288.889 288.889 288.889 288.889 288.889 288.889 288.889
288.889 288.889 288.889 288.889 288.889 288.889 288.889 288.889 288.889 288.889
288.889 288.889 288.889 288.889 288.889 288.889 288.889 288.889 288.889 288.889
288.889 288.889 288.889 288.889 288.889 288.889 288.889 288.889 288.889 288.889
288.889 288.889 288.889 288.889 288.889 288.889 288.889 288.889 288.889 288.889
288.889 288.889 288.889 288.889 288.889 288.889 288.889 288.889 288.889 288.889
288.889 288.889 288.889 288.889 288.889 288.889 288.889 288.889 288.889 288.889
288.889 288.889 288.889 288.889 288.889 288.889 288.889 288.889 288.889 288.889
288.889 288.889 288.889 288.889 288.889 288.889 288.889 288.889 288.889 288.889
288.889 288.889 288.889 288.889 288.889 288.889 288.889 288.889 288.889 288.889
288.889 288.889 288.889 288.889 288.889 288.889 288.889 288.889 288.889 288.889
288.889 288.889 288.889 288.889 288.889 288.889 288.889 288.889 288.889 288.889
288.889 288.889 288.889 288.889 288.889 288.889 288.889 288.889 288.889 288.889
288.889 288.889 288.889 288.889 288.889 288.889 288.889 288.889 288.889 288.889
288.889 288.889 288.889 288.889 288.889 288.889 288.889 288.889 288.889 288.889
288.889 288.889 288.889 288.889 288.889 288.889 288.889 288.889 288.889 288.889
288.889 288.889 288.889 288.889 288.889 288.889 288.889 288.889 288.889 288.889
288.889 288.889 288.889 288.889 288.889 288.889 288.889 288.889 288.889 288.889
288.889 288.889 288.889 288.889 288.889 288.889 288.889 288.889 288.889 288.889
288.889 288.889 288.889 288.889 288.889 288.889 288.889 288.889 288.889 288.889
288.889 288.889 288.889 288.889 288.889 288.889 288.889 288.889 288.889 288.889
288.889 288.889 288.889 288.889 288.889 288.889 288.889 288.889 288.889 288.889
288.889 288.889 288.889 288.889 288.889 288.889 288.889 288.889 288.889 288.889
288.889 288.889 288.889 
U 3 324 float
71.3607 0.899666 -24.2461 63.6915 -4.86184 -87.6665 66.5578 1.12836 -27.4569 66.1511 -1.58716
-37.2875 64.2472 -29.124 -73.8502 71.4339 -6.71588 -22.1493 46.4802 0.655104 -34.915
61.9036 17.3082 -57.1352 92.0162 2.77223 -11.2132 45.8113 -5.6212 -54.5367 70.5053
2.04687 -175.517 97.5793 3.78277 -42.248 54.71 -6.92185 -87.2422 80.4654 -13.858
-109.954 91.4915 1.4067 -37.7379 40.2324 18.0243 -50.7483 77.5909 16.6428 21.0821
103.906 3.98334 1.31768 19.6704 -15.4523 62.8607 77.231 27.9195 175.819 122.104
3.38356 62.1214 61.793 0.307232 89.9098 96.3886 69.1739 141.484 81.5683 15.0662
55.5406 82.8799 21.3225 74.29 88.6802 -42.8558 87.5488 57.5854 -1.31563 34.6435
77.0345 0.477966 -19.6201 63.2085 -4.68869 -78.8824 67.0548 0.979743 -23.9617 71.2049
-1.41937 -28.7548 63.7785 -26.6152 -67.0261 70.377 -6.28757 -17.539 58.0092 1.23865
-28.6224 60.8534 16.1074 -55.6337 88.0813 2.7901 -8.16396 49.8645 -4.08952 -47.4438
64.7445 1.23991 -162.75 88.3608 4.19169 -37.2054 45.3417 -5.9207 -72.5948 71.5228
-14.9906 -100.01 81.0612 1.612 -29.9811 33.8054 14.5853 -41.7714 70.695 16.1915
19.8795 92.9908 2.26475 4.60116 17.0694 -12.0969 54.4757 72.1979 26.6813 162.321
108.681 4.592 56.2991 34.7046 1.41692 74.8746 87.8118 64.698 130.316 67.3317
14.615 47.6009 60.9751 17.3699 62.8171 82.7783 -40.195 86.6414 46.2579 -3.44722
29.7457 77.4815 -0.600394 -27.1045 51.1711 -4.81973 -83.7139 -3.28633 0.501347 -20.9885
71.2846 -2.94507 -36.4944 52.3785 -27.8999 -72.3619 -0.00367772 -3.65506 -19.8626 56.1424
1.90299 -36.9653 53.3121 14.8004 -61.3454 17.2022 3.29896 -14.7671 44.3543 -5.29548
-58.359 58.3409 0.856804 -171.802 33.8787 1.06476 -29.4313 38.4159 -7.8757 -83.605
63.0804 -16.7154 -107.372 37.5396 -0.543824 -27.1983 25.6755 16.38 -52.9346 64.0981
20.9493 16.4785 58.1732 7.51458 -1.52277 8.06359 -13.2227 65.7127 70.2155 27.3953
170.066 85.4149 1.61793 52.262 24.3589 -0.232763 87.5782 83.838 66.239 138.727
65.1794 10.2986 51.7069 53.4118 24.0065 77.1861 77.9018 -18.5783 97.5965 21.8014
6.41635 38.2457 72.6853 2.76738 -10.1912 63.7394 33.8243 -70.9216 64.8455 9.88201
-17.7173 66.358 -2.44371 -30.6393 64.2679 -25.956 -78.646 71.1275 -7.92987 -20.5043
52.4274 -2.06912 -55.5677 63.2107 -18.2098 -86.3238 85.9754 -7.19525 -26.1418 47.5119
8.72566 -47.0495 67.091 20.939 -170.945 94.1257 4.23163 -34.7644 48.9092 -25.1336
-81.3316 77.0474 -33.6589 -113.522 95.8643 -12.1427 -34.687 43.4362 -14.5342 -68.9896
82.5824 -22.05 -7.79684 103.604 -10.0147 -11.7156 19.4074 -11.9523 42.492 77.0611
-63.1444 150.734 121.726 -13.6939 45.0082 57.1668 -13.414 80.8009 94.4497 55.6158
148.717 85.6315 3.59358 53.1292 84.4969 4.10117 105.138 92.4131 34.65 131.257
57.4819 4.28924 57.9684 78.031 2.15336 -8.33306 63.553 30.5754 -64.209 64.6815
9.15015 -16.1285 71.3509 -3.04454 -24.2071 63.8191 -23.9832 -71.3322 68.7064 -7.71764
-17.7217 61.7822 -2.06186 -44.5605 61.6681 -16.5246 -81.1608 81.5121 -6.81023 -21.1745
53.5814 7.49622 -40.6715 62.6456 21.4015 -157.732 86.4459 3.14078 -31.3477 43.6301
-21.1597 -67.5716 68.9348 -32.4608 -101.975 85.118 -10.2411 -29.1276 33.0645 -12.2393
-56.3177 72.9772 -21.4401 -5.26293 91.4929 -8.53727 -7.21835 16.6636 -10.5764 37.8954
71.745 -57.7916 139.422 113.591 -13.2673 41.6973 33.0478 -10.868 68.3202 85.4946
52.2492 136.151 78.7832 4.34612 47.5062 59.7299 3.56443 87.3615 84.8636 31.829
122.703 50.7108 4.14325 50.057 76.9904 1.75583 -14.4882 52.9046 30.63 -60.3677
-6.12585 5.25943 -12.2194 70.1785 -4.81496 -30.5142 53.3951 -22.9186 -67.0686 2.35277
-6.19073 -17.0987 60.8773 -2.32308 -50.6822 54.0495 -15.6679 -65.5018 12.7335 -3.9947
-22.8113 52.4847 8.45468 -42.5929 56.4765 27.9203 -129.134 19.8797 4.48754 -16.3745
42.0603 -22.9135 -64.6169 61.7574 -25.4869 -82.1451 38.6353 -11.4873 -17.5647 35.3728
-12.4079 -56.7316 67.7294 -14.8854 6.81097 62.4328 -6.8515 -6.17235 26.6194 -2.48712
44.8569 68.7323 -41.1776 130.666 59.1282 -5.05533 38.5408 38.6841 -11.8847 78.4997
79.0164 45.0521 130.17 52.1836 -1.09035 51.1571 61.8479 1.61894 99.334 78.3783
28.8078 79.5224 25.7913 1.70073 50.0081 74.2081 2.3894 71.4487 61.9171 -4.96043
172.042 61.853 1.17439 46.651 67.2964 -0.849745 107.698 60.7363 -27.9726 105.967
68.4643 -5.86481 50.777 49.4139 -3.06246 67.1274 59.1047 13.5875 -116.579 86.8581
-0.0670906 2.56469 45.9141 -2.84189 -180.229 66.9644 5.04225 -265.338 91.7785 6.12921
-183.883 55.3643 -1.49616 -219.245 77.2745 -45.1171 -256.888 87.0471 -0.509 -240.328
6.62196 10.2525 -212.766 68.6514 22.9631 -210.863 134.564 -1.03929 -226.248 51.0411
-17.1165 -158.519 78.1637 -0.73437 -173.705 117.867 -27.045 -153.615 68.1579 -17.1166
-187.071 68.1585 -0.734614 -185.26 68.1582 -27.0453 -219.964 68.1575 61.908 -189.762
68.1584 3.26839 -84.9468 68.1586 80.8173 -206.688 81.1347 1.81149 57.6329 63.0924
-4.97916 166.042 63.007 0.963296 41.8993 75.4705 -1.00247 89.1343 62.2078 -25.0851
101.233 68.8755 -5.46133 44.1571 63.3059 -1.82381 53.1296 60.3814 12.5882 -107.428
84.3935 0.0721989 -0.48686 54.0831 -0.644632 -152.021 65.6659 4.06021 -261.254 84.2642
6.84231 -155.345 49.6754 -0.0871835 -247.567 71.6747 -44.293 -256.512 78.4053 -0.374282
-238.945 13.4607 7.92711 -241.938 64.8359 20.6645 -216.299 125.469 -2.19325 -223.138
49.6011 -45.9575 -127.348 64.2423 -2.60634 -181.102 111.235 -40.8329 -127.696 68.1575
-45.9581 -217.976 68.1583 -2.60664 -194.437 68.1581 -39.3554 -223.048 68.1571 90.6709
-219.09 69.7571 5.14908 -97.7359 68.9848 90.6286 -205.659 82.0333 1.18457 68.0885
51.4094 -4.84878 176.389 -24.673 0.982894 34.1987 76.5298 -1.68909 100.015 51.2138
-24.8129 110.644 -21.9692 -3.33837 39.7861 63.758 -1.95364 66.6778 51.714 12.4423
-86.5476 -4.10906 2.2612 6.34279 51.7849 -1.71235 -151.93 56.9081 4.48655 -261.68
12.8372 4.60792 -142.066 46.2221 -0.488187 -247.704 61.6974 -37.0933 -256.886 6.51512
0.584686 -218.718 17.2369 8.47788 -239.583 57.4565 -20.8617 -216.957 47.5256 -7.90956
-205.516 30.6278 -46.6982 -123.046 59.8977 -2.45017 -179.91 177.72 -37.3399 -115.554
68.1573 -45.5126 -213.02 68.1586 -2.45043 -193.785 237.001 -35.0613 -199.451 65.8557
51.7966 -213.095 69.5857 1.14116 -110.63 234.708 60.5631 -186.847 74.8146 2.5776
69.6932 61.9225 31.9107 180.641 61.6626 8.28408 40.4075 68.2353 1.56241 105.231
61.0612 -20.0213 102.749 67.4844 -3.47719 47.4748 55.1865 -0.838484 73.7288 59.3162
-15.3322 -95.7972 80.3515 -4.78909 9.9323 49.7063 3.00558 -118.445 63.2275 63.0684
-261.789 87.8614 7.81653 -113.417 48.5365 -16.0241 -217.838 74.0206 -59.2314 -257.406
92.2929 -9.45921 -239.526 13.9197 -10.1228 -216.159 75.0349 -49.1767 -226.738 130.41
-11.6766 -229.944 20.8644 14.6145 -108.783 81.2874 0.771853 -191.667 134.027 19.0785
-91.7654 68.1578 -47.2938 -191.568 68.1584 -2.49717 -176.555 68.1583 -61.7393 -219.677
68.1576 -0.000179287 -171.322 68.1583 -0.000381388 -78.2056 68.1585 -0.000262392 -196.324 81.7446
2.38997 57.1449 62.792 27.8465 169.88 61.9342 7.46177 37.196 75.8162 0.164954
85.8842 62.3854 -18.8479 96.6922 68.3054 -3.60412 46.0144 66.8842 -1.23484 59.7539
60.7363 -14.0002 -91.8186 80.0347 -4.56899 11.4303 59.6956 2.41423 -104.911 62.8339
60.651 -258.384 82.0098 9.40006 -96.8486 46.8797 -12.9727 -246.251 71.5257 -56.6309
-256.557 66.028 -6.08 -237.952 13.7068 -8.01713 -243.779 70.4172 -48.2635 -228.553
99.4874 -10.4565 -228.811 11.8685 21.4045 -91.8172 71.2467 1.21583 -195.312 90.5678
19.5677 -77.1245 68.1574 -69.2668 -220.44 68.1583 -3.9339 -186.447 68.1577 -69.5834
-225.042 68.1573 -0.000191104 -204.404 68.1582 -0.000386588 -89.9241 68.158 -0.000265254 -204.129
82.4439 2.55731 56.1616 54.1995 27.953 75.2515 -26.6045 7.20114 8.04191 77.4315
0.499329 55.3532 53.1901 -28.3688 16.8345 -24.2508 -4.65246 14.5779 59.0719 -1.13795
29.5011 51.1675 -23.9152 -195.171 -3.05169 -5.27102 -16.9213 29.8171 -11.3335 -163.659
51.167 14.1488 -264.727 29.5311 -4.46298 -126.519 9.55188 -29.0423 -246.638 68.2486
-67.4727 -257.565 40.1479 -12.4716 -221.37 -38.0034 -10.4549 -244.359 67.4382 -60.9025
-209.731 110.693 -11.8947 -210.825 -14.036 10.7609 -146.852 77.666 0.269154 -140.54
165.519 11.4799 -91.8603 68.1568 -39.8497 -189.379 68.1587 -0.872448 -129.147 237.001
-46.8046 -184.315 68.1568 -0.000119275 -168.468 68.1587 -0.000235256 -7.34733 237 -0.000220323
-160.525 
POINT_DATA  490
FIELD attributes 4
rho 1 490 float
0.568384 0.543513 0.586482 0.606159 0.561397 0.553975 0.592821 0.59805 0.579075 0.683442 0.710619
0.600305 0.575699 0.644823 0.676147 0.601179 0.674952 0.746919 0.73705 0.646144 0.693971
0.770779 0.745848 0.650174 0.739638 0.885068 0.844479 0.67571 0.674827 0.812636 0.797191
0.644407 0.950715 1.22376 1.11808 0.815534 1.0307 1.23595 1.0925 0.845652 1.06499
1.13368 0.961953 0.850374 0.922082 1.0873 0.973579 0.775009 0.74755 0.907046 0.870667
0.70203 0.796646 0.912715 0.849197 0.72212 0.799734 0.828097 0.746249 0.706923 0.731958
0.826251 0.776989 0.672577 0.546137 0.59051 0.603536 0.557218 0.596862 0.600411 0.671186
0.702635 0.609771 0.635051 0.669827 0.607887 0.710004 0.720731 0.655564 0.730513 0.728921
0.664407 0.836912 0.822482 0.697537 0.776352 0.780069 0.664744 1.13357 1.06529 0.841985
1.13693 1.03788 0.87354 1.04289 0.918816 0.887466 1.01421 0.93683 0.804645 0.868466
0.841844 0.715677 0.868414 0.818703 0.737312 0.785227 0.719441 0.728803 0.789233 0.752743
0.686984 0.539968 0.707222 0.978799 0.556498 0.710313 1.0464 0.684974 0.804644 1.03026
0.650917 0.775572 1.03427 0.732194 0.837946 1.02815 0.759628 0.84797 1.21913 0.8826
0.945311 1.21913 0.813718 0.895082 1.21913 1.20542 1.1751 1.05436 1.21253 1.15769
1.21913 1.12939 1.05811 1.21913 1.04623 1.02522 1.21913 0.908224 0.951571 1.02487
0.910549 0.928112 1.21913 0.830475 0.831632 1.21913 0.79134 0.82154 1.21913 0.555922
0.542394 0.580643 0.593432 0.583137 0.660026 0.679066 0.597235 0.5992 0.72133 0.728933
0.598897 0.639358 0.720622 0.712521 0.620027 0.785236 0.917438 0.866719 0.705194 0.843442
1.00152 0.931548 0.742842 0.941882 1.16602 1.04532 0.790259 1.15365 1.22233 1.03852
0.912463 1.19229 1.21831 1.01585 0.947355 0.768043 0.891264 0.832504 0.700536 0.835512
0.850114 0.761826 0.731838 0.823248 0.810589 0.721008 0.725087 0.547556 0.585603 0.604043
0.651652 0.677317 0.618487 0.702851 0.722274 0.621103 0.692384 0.7032 0.643883 0.863775
0.846701 0.734652 0.934807 0.90581 0.770036 1.08019 1.00235 0.805799 1.1165 0.992723
0.928426 1.10839 0.971284 0.964246 0.848517 0.807094 0.70044 0.805947 0.739277 0.732027
0.770089 0.701733 0.728967 0.565737 0.706781 1.04207 0.676453 0.791444 1.03717 0.727068
0.830769 0.949893 0.721398 0.820137 1.21913 0.888082 0.948251 1.21913 0.952026 0.996951
1.0618 1.06298 1.05178 1.21913 1.1109 1.05528 1.21913 1.10806 1.03788 1.10849
0.811486 0.843856 1.21913 0.807014 0.819952 1.21913 0.796957 0.81197 1.01991 0.506631
0.566743 0.583229 0.528076 0.509245 0.573678 0.577077 0.51679 0.522158 0.73147 0.734006
0.523265 0.497789 0.687042 0.710888 0.524902 1.41794 1.55712 1.47971 1.22601 1.4851