TITLE = "Mask Points"
VARIABLES = "x","y","z"
ZONE I=42570,J=2,K=1, DATAPACKING=POINT
  0.16515E+00  0.13086E+00  0.15920E-01
  0.17057E+00  0.13086E+00  0.15920E-01
  0.15602E+00  0.14416E+00  0.15920E-01
  0.16515E+00  0.14416E+00  0.15920E-01
  0.17057E+00  0.14416E+00  0.15920E-01
  0.14416E+00  0.15602E+00  0.15920E-01
  0.15602E+00  0.15602E+00  0.15920E-01
  0.16515E+00  0.15602E+00  0.15920E-01
  0.17057E+00  0.15602E+00  0.15920E-01
  0.13086E+00  0.16515E+00  0.15920E-01
  0.14416E+00  0.16515E+00  0.15920E-01
  0.15602E+00  0.16515E+00  0.15920E-01
  0.16515E+00  0.16515E+00  0.15920E-01
  0.17057E+00  0.16515E+00  0.15920E-01
  0.13086E+00  0.17057E+00  0.15920E-01
  0.14416E+00  0.17057E+00  0.15920E-01
  0.15602E+00  0.17057E+00  0.15920E-01
  0.16515E+00  0.17057E+00  0.15920E-01
  0.17057E+00  0.17057E+00  0.15920E-01
  0.16515E+00  0.13086E+00  0.81984E-01
  0.17057E+00  0.13086E+00  0.81984E-01
  0.15602E+00  0.14416E+00  0.81984E-01
  0.16515E+00  0.14416E+00  0.81984E-01
  0.17057E+00  0.14416E+00  0.81984E-01
  0.14416E+00  0.15602E+00  0.81984E-01
  0.15602E+00  0.15602E+00  0.81984E-01
  0.16515E+00  0.15602E+00  0.81984E-01
  0.17057E+00  0.15602E+00  0.81984E-01
  0.13086E+00  0.16515E+00  0.81984E-01
  0.14416E+00  0.16515E+00  0.81984E-01
  0.15602E+00  0.16515E+00  0.81984E-01
  0.16515E+00  0.16515E+00  0.81984E-01
  0.17057E+00  0.16515E+00  0.81984E-01
  0.13086E+00  0.17057E+00  0.81984E-01
  0.14416E+00  0.17057E+00  0.81984E-01
  0.15602E+00  0.17057E+00  0.81984E-01
  0.16515E+00  0.17057E+00  0.81984E-01
  0.17057E+00  0.17057E+00  0.81984E-01
  0.16515E+00  0.13086E+00  0.19331E+00
  0.17057E+00  0.13086E+00  0.19331E+00
  0.15602E+00  0.14416E+00  0.19331E+00
  0.16515E+00  0.14416E+00  0.19331E+00
  0.17057E+00  0.14416E+00  0.19331E+00
  0.14416E+00  0.15602E+00  0.19331E+00
  0.15602E+00  0.15602E+00  0.19331E+00
  0.16515E+00  0.15602E+00  0.19331E+00
  0.17057E+00  0.15602E+00  0.19331E+00
  0.13086E+00  0.16515E+00  0.19331E+00
  0.14416E+00  0.16515E+00  0.19331E+00
  0.15602E+00  0.16515E+00  0.19331E+00
  0.16515E+00  0.16515E+00  0.19331E+00
  0.17057E+00  0.16515E+00  0.19331E+00
  0.13086E+00  0.17057E+00  0.19331E+00
  0.14416E+00  0.17057E+00  0.19331E+00
  0.15602E+00  0.17057E+00  0.19331E+00
  0.16515E+00  0.17057E+00  0.19331E+00
  0.17057E+00  0.17057E+00  0.19331E+00
  0.16515E+00  0.13086E+00  0.33787E+00
  0.17057E+00  0.13086E+00  0.33787E+00
  0.15602E+00  0.14416E+00  0.33787E+00
  0.16515E+00  0.14416E+00  0.33787E+00
  0.17057E+00  0.14416E+00  0.33787E+00
  0.14416E+00  0.15602E+00  0.33787E+00
  0.15602E+00  0.15602E+00  0.33787E+00
  0.16515E+00  0.15602E+00  0.33787E+00
  0.17057E+00  0.15602E+00  0.33787E+00
  0.13086E+00  0.16515E+00  0.33787E+00
  0.14416E+00  0.16515E+00  0.33787E+00
  0.15602E+00  0.16515E+00  0.33787E+00
  0.16515E+00  0.16515E+00  0.33787E+00
  0.17057E+00  0.16515E+00  0.33787E+00
  0.13086E+00  0.17057E+00  0.33787E+00
  0.14416E+00  0.17057E+00  0.33787E+00
  0.15602E+00  0.17057E+00  0.33787E+00
  0.16515E+00  0.17057E+00  0.33787E+00
  0.17057E+00  0.17057E+00  0.33787E+00
  0.16515E+00  0.13086E+00  0.50000E+00
  0.17057E+00  0.13086E+00  0.50000E+00
  0.15602E+00  0.14416E+00  0.50000E+00
  0.16515E+00  0.14416E+00  0.50000E+00
  0.17057E+00  0.14416E+00  0.50000E+00
  0.14416E+00  0.15602E+00  0.50000E+00
  0.15602E+00  0.15602E+00  0.50000E+00
  0.16515E+00  0.15602E+00  0.50000E+00
  0.17057E+00  0.15602E+00  0.50000E+00
  0.13086E+00  0.16515E+00  0.50000E+00
  0.14416E+00  0.16515E+00  0.50000E+00
  0.15602E+00  0.16515E+00  0.50000E+00
  0.16515E+00  0.16515E+00  0.50000E+00
  0.17057E+00  0.16515E+00  0.50000E+00
  0.13086E+00  0.17057E+00  0.50000E+00
  0.14416E+00  0.17057E+00  0.50000E+00
  0.15602E+00  0.17057E+00  0.50000E+00
  0.16515E+00  0.17057E+00  0.50000E+00
  0.17057E+00  0.17057E+00  0.50000E+00
  0.16515E+00  0.13086E+00  0.66213E+00
  0.17057E+00  0.13086E+00  0.66213E+00
  0.15602E+00  0.14416E+00  0.66213E+00
  0.16515E+00  0.14416E+00  0.66213E+00
  0.17057E+00  0.14416E+00  0.66213E+00
  0.14416E+00  0.15602E+00  0.66213E+00
  0.15602E+00  0.15602E+00  0.66213E+00
  0.16515E+00  0.15602E+00  0.66213E+00
  0.17057E+00  0.15602E+00  0.66213E+00
  0.13086E+00  0.16515E+00  0.66213E+00
  0.14416E+00  0.16515E+00  0.66213E+00
  0.15602E+00  0.16515E+00  0.66213E+00
  0.16515E+00  0.16515E+00  0.66213E+00
  0.17057E+00  0.16515E+00  0.66213E+00
  0.13086E+00  0.17057E+00  0.66213E+00
  0.14416E+00  0.17057E+00  0.66213E+00
  0.15602E+00  0.17057E+00  0.66213E+00
  0.16515E+00  0.17057E+00  0.66213E+00
  0.17057E+00  0.17057E+00  0.66213E+00
  0.16515E+00  0.13086E+00  0.80669E+00
  0.17057E+00  0.13086E+00  0.80669E+00
  0.15602E+00  0.14416E+00  0.80669E+00
  0.16515E+00  0.14416E+00  0.80669E+00
  0.17057E+00  0.14416E+00  0.80669E+00
  0.14416E+00  0.15602E+00  0.80669E+00
  0.15602E+00  0.15602E+00  0.80669E+00
  0.16515E+00  0.15602E+00  0.80669E+00
  0.17057E+00  0.15602E+00  0.80669E+00
  0.13086E+00  0.16515E+00  0.80669E+00
  0.14416E+00  0.16515E+00  0.80669E+00
  0.15602E+00  0.16515E+00  0.80669E+00
  0.16515E+00  0.16515E+00  0.80669E+00
  0.17057E+00  0.16515E+00  0.80669E+00
  0.13086E+00  0.17057E+00  0.80669E+00
  0.14416E+00  0.17057E+00  0.80669E+00
  0.15602E+00  0.17057E+00  0.80669E+00
  0.16515E+00  0.17057E+00  0.80669E+00
  0.17057E+00  0.17057E+00  0.80669E+00
  0.16515E+00  0.13086E+00  0.91802E+00
  0.17057E+00  0.13086E+00  0.91802E+00
  0.15602E+00  0.14416E+00  0.91802E+00
  0.16515E+00  0.14416E+00  0.91802E+00
  0.17057E+00  0.14416E+00  0.91802E+00
  0.14416E+00  0.15602E+00  0.91802E+00
  0.15602E+00  0.15602E+00  0.91802E+00
  0.16515E+00  0.15602E+00  0.91802E+00
  0.17057E+00  0.15602E+00  0.91802E+00
  0.13086E+00  0.16515E+00  0.91802E+00
  0.14416E+00  0.16515E+00  0.91802E+00
  0.15602E+00  0.16515E+00  0.91802E+00
  0.16515E+00  0.16515E+00  0.91802E+00
  0.17057E+00  0.16515E+00  0.91802E+00
  0.13086E+00  0.17057E+00  0.91802E+00
  0.14416E+00  0.17057E+00  0.91802E+00
  0.15602E+00  0.17057E+00  0.91802E+00
  0.16515E+00  0.17057E+00  0.91802E+00
  0.17057E+00  0.17057E+00  0.91802E+00
  0.16515E+00  0.13086E+00  0.98408E+00
  0.17057E+00  0.13086E+00  0.98408E+00
  0.15602E+00  0.14416E+00  0.98408E+00
  0.16515E+00  0.14416E+00  0.98408E+00
  0.17057E+00  0.14416E+00  0.98408E+00
  0.14416E+00  0.15602E+00  0.98408E+00
  0.15602E+00  0.15602E+00  0.98408E+00
  0.16515E+00  0.15602E+00  0.98408E+00
  0.17057E+00  0.15602E+00  0.98408E+00
  0.13086E+00  0.16515E+00  0.98408E+00
  0.14416E+00  0.16515E+00  0.98408E+00
  0.15602E+00  0.16515E+00  0.98408E+00
  0.16515E+00  0.16515E+00  0.98408E+00
  0.17057E+00  0.16515E+00  0.98408E+00
  0.13086E+00  0.17057E+00  0.98408E+00
  0.14416E+00  0.17057E+00  0.98408E+00
  0.15602E+00  0.17057E+00  0.98408E+00
  0.16515E+00  0.17057E+00  0.98408E+00
  0.17057E+00  0.17057E+00  0.98408E+00
  0.47228E+00  0.10872E-02  0.15920E-01
  0.48414E+00  0.10872E-02  0.15920E-01
  0.49327E+00  0.10872E-02  0.15920E-01
  0.49869E+00  0.10872E-02  0.15920E-01
  0.42469E+00  0.65066E-02  0.15920E-01
  0.43383E+00  0.65066E-02  0.15920E-01
  0.44568E+00  0.65066E-02  0.15920E-01
  0.45898E+00  0.65066E-02  0.15920E-01
  0.47228E+00  0.65066E-02  0.15920E-01
  0.48414E+00  0.65066E-02  0.15920E-01
  0.49327E+00  0.65066E-02  0.15920E-01
  0.49869E+00  0.65066E-02  0.15920E-01
  0.47228E+00  0.10872E-02  0.81984E-01
  0.48414E+00  0.10872E-02  0.81984E-01
  0.49327E+00  0.10872E-02  0.81984E-01
  0.49869E+00  0.10872E-02  0.81984E-01
  0.42469E+00  0.65066E-02  0.81984E-01
  0.43383E+00  0.65066E-02  0.81984E-01
  0.44568E+00  0.65066E-02  0.81984E-01
  0.45898E+00  0.65066E-02  0.81984E-01
  0.47228E+00  0.65066E-02  0.81984E-01
  0.48414E+00  0.65066E-02  0.81984E-01
  0.49327E+00  0.65066E-02  0.81984E-01
  0.49869E+00  0.65066E-02  0.81984E-01
  0.47228E+00  0.10872E-02  0.19331E+00
  0.48414E+00  0.10872E-02  0.19331E+00
  0.49327E+00  0.10872E-02  0.19331E+00
  0.49869E+00  0.10872E-02  0.19331E+00
  0.42469E+00  0.65066E-02  0.19331E+00
  0.43383E+00  0.65066E-02  0.19331E+00
  0.44568E+00  0.65066E-02  0.19331E+00
  0.45898E+00  0.65066E-02  0.19331E+00
  0.47228E+00  0.65066E-02  0.19331E+00
  0.48414E+00  0.65066E-02  0.19331E+00
  0.49327E+00  0.65066E-02  0.19331E+00
  0.49869E+00  0.65066E-02  0.19331E+00
  0.47228E+00  0.10872E-02  0.33787E+00
  0.48414E+00  0.10872E-02  0.33787E+00
  0.49327E+00  0.10872E-02  0.33787E+00
  0.49869E+00  0.10872E-02  0.33787E+00
  0.42469E+00  0.65066E-02  0.33787E+00
  0.43383E+00  0.65066E-02  0.33787E+00
  0.44568E+00  0.65066E-02  0.33787E+00
  0.45898E+00  0.65066E-02  0.33787E+00
  0.47228E+00  0.65066E-02  0.33787E+00
  0.48414E+00  0.65066E-02  0.33787E+00
  0.49327E+00  0.65066E-02  0.33787E+00
  0.49869E+00  0.65066E-02  0.33787E+00
  0.47228E+00  0.10872E-02  0.50000E+00
  0.48414E+00  0.10872E-02  0.50000E+00
  0.49327E+00  0.10872E-02  0.50000E+00
  0.49869E+00  0.10872E-02  0.50000E+00
  0.42469E+00  0.65066E-02  0.50000E+00
  0.43383E+00  0.65066E-02  0.50000E+00
  0.44568E+00  0.65066E-02  0.50000E+00
  0.45898E+00  0.65066E-02  0.50000E+00
  0.47228E+00  0.65066E-02  0.50000E+00
  0.48414E+00  0.65066E-02  0.50000E+00
  0.49327E+00  0.65066E-02  0.50000E+00
  0.49869E+00  0.65066E-02  0.50000E+00
  0.47228E+00  0.10872E-02  0.66213E+00
  0.48414E+00  0.10872E-02  0.66213E+00
  0.49327E+00  0.10872E-02  0.66213E+00
  0.49869E+00  0.10872E-02  0.66213E+00
  0.42469E+00  0.65066E-02  0.66213E+00
  0.43383E+00  0.65066E-02  0.66213E+00
  0.44568E+00  0.65066E-02  0.66213E+00
  0.45898E+00  0.65066E-02  0.66213E+00
  0.47228E+00  0.65066E-02  0.66213E+00
  0.48414E+00  0.65066E-02  0.66213E+00
  0.49327E+00  0.65066E-02  0.66213E+00
  0.49869E+00  0.65066E-02  0.66213E+00
  0.47228E+00  0.10872E-02  0.80669E+00
  0.48414E+00  0.10872E-02  0.80669E+00
  0.49327E+00  0.10872E-02  0.80669E+00
  0.49869E+00  0.10872E-02  0.80669E+00
  0.42469E+00  0.65066E-02  0.80669E+00
  0.43383E+00  0.65066E-02  0.80669E+00
  0.44568E+00  0.65066E-02  0.80669E+00
  0.45898E+00  0.65066E-02  0.80669E+00
  0.47228E+00  0.65066E-02  0.80669E+00
  0.48414E+00  0.65066E-02  0.80669E+00
  0.49327E+00  0.65066E-02  0.80669E+00
  0.49869E+00  0.65066E-02  0.80669E+00
  0.47228E+00  0.10872E-02  0.91802E+00
  0.48414E+00  0.10872E-02  0.91802E+00
  0.49327E+00  0.10872E-02  0.91802E+00
  0.49869E+00  0.10872E-02  0.91802E+00
  0.42469E+00  0.65066E-02  0.91802E+00
  0.43383E+00  0.65066E-02  0.91802E+00
  0.44568E+00  0.65066E-02  0.91802E+00
  0.45898E+00  0.65066E-02  0.91802E+00
  0.47228E+00  0.65066E-02  0.91802E+00
  0.48414E+00  0.65066E-02  0.91802E+00
  0.49327E+00  0.65066E-02  0.91802E+00
  0.49869E+00  0.65066E-02  0.91802E+00
  0.47228E+00  0.10872E-02  0.98408E+00
  0.48414E+00  0.10872E-02  0.98408E+00
  0.49327E+00  0.10872E-02  0.98408E+00
  0.49869E+00  0.10872E-02  0.98408E+00
  0.42469E+00  0.65066E-02  0.98408E+00
  0.43383E+00  0.65066E-02  0.98408E+00
  0.44568E+00  0.65066E-02  0.98408E+00
  0.45898E+00  0.65066E-02  0.98408E+00
  0.47228E+00  0.65066E-02  0.98408E+00
  0.48414E+00  0.65066E-02  0.98408E+00
  0.49327E+00  0.65066E-02  0.98408E+00
  0.49869E+00  0.65066E-02  0.98408E+00
  0.24718E+00  0.73986E-01  0.15920E-01
  0.25260E+00  0.73986E-01  0.15920E-01
  0.22619E+00  0.83118E-01  0.15920E-01
  0.23805E+00  0.83118E-01  0.15920E-01
  0.24718E+00  0.83118E-01  0.15920E-01
  0.25260E+00  0.83118E-01  0.15920E-01
  0.22619E+00  0.88538E-01  0.15920E-01
  0.23805E+00  0.88538E-01  0.15920E-01
  0.24718E+00  0.88538E-01  0.15920E-01
  0.25260E+00  0.88538E-01  0.15920E-01
  0.24718E+00  0.73986E-01  0.81984E-01
  0.25260E+00  0.73986E-01  0.81984E-01
  0.22619E+00  0.83118E-01  0.81984E-01
  0.23805E+00  0.83118E-01  0.81984E-01
  0.24718E+00  0.83118E-01  0.81984E-01
  0.25260E+00  0.83118E-01  0.81984E-01
  0.22619E+00  0.88538E-01  0.81984E-01
  0.23805E+00  0.88538E-01  0.81984E-01
  0.24718E+00  0.88538E-01  0.81984E-01
  0.25260E+00  0.88538E-01  0.81984E-01
  0.24718E+00  0.73986E-01  0.19331E+00
  0.25260E+00  0.73986E-01  0.19331E+00
  0.22619E+00  0.83118E-01  0.19331E+00
  0.23805E+00  0.83118E-01  0.19331E+00
  0.24718E+00  0.83118E-01  0.19331E+00
  0.25260E+00  0.83118E-01  0.19331E+00
  0.22619E+00  0.88538E-01  0.19331E+00
  0.23805E+00  0.88538E-01  0.19331E+00
  0.24718E+00  0.88538E-01  0.19331E+00
  0.25260E+00  0.88538E-01  0.19331E+00
  0.24718E+00  0.73986E-01  0.33787E+00
  0.25260E+00  0.73986E-01  0.33787E+00
  0.22619E+00  0.83118E-01  0.33787E+00
  0.23805E+00  0.83118E-01  0.33787E+00
  0.24718E+00  0.83118E-01  0.33787E+00
  0.25260E+00  0.83118E-01  0.33787E+00
  0.22619E+00  0.88538E-01  0.33787E+00
  0.23805E+00  0.88538E-01  0.33787E+00
  0.24718E+00  0.88538E-01  0.33787E+00
  0.25260E+00  0.88538E-01  0.33787E+00
  0.24718E+00  0.73986E-01  0.50000E+00
  0.25260E+00  0.73986E-01  0.50000E+00
  0.22619E+00  0.83118E-01  0.50000E+00
  0.23805E+00  0.83118E-01  0.50000E+00
  0.24718E+00  0.83118E-01  0.50000E+00
  0.25260E+00  0.83118E-01  0.50000E+00
  0.22619E+00  0.88538E-01  0.50000E+00
  0.23805E+00  0.88538E-01  0.50000E+00
  0.24718E+00  0.88538E-01  0.50000E+00
  0.25260E+00  0.88538E-01  0.50000E+00
  0.24718E+00  0.73986E-01  0.66213E+00
  0.25260E+00  0.73986E-01  0.66213E+00
  0.22619E+00  0.83118E-01  0.66213E+00
  0.23805E+00  0.83118E-01  0.66213E+00
  0.24718E+00  0.83118E-01  0.66213E+00
  0.25260E+00  0.83118E-01  0.66213E+00
  0.22619E+00  0.88538E-01  0.66213E+00
  0.23805E+00  0.88538E-01  0.66213E+00
  0.24718E+00  0.88538E-01  0.66213E+00
  0.25260E+00  0.88538E-01  0.66213E+00
  0.24718E+00  0.73986E-01  0.80669E+00
  0.25260E+00  0.73986E-01  0.80669E+00
  0.22619E+00  0.83118E-01  0.80669E+00
  0.23805E+00  0.83118E-01  0.80669E+00
  0.24718E+00  0.83118E-01  0.80669E+00
  0.25260E+00  0.83118E-01  0.80669E+00
  0.22619E+00  0.88538E-01  0.80669E+00
  0.23805E+00  0.88538E-01  0.80669E+00
  0.24718E+00  0.88538E-01  0.80669E+00
  0.25260E+00  0.88538E-01  0.80669E+00
  0.24718E+00  0.73986E-01  0.91802E+00
  0.25260E+00  0.73986E-01  0.91802E+00
  0.22619E+00  0.83118E-01  0.91802E+00
  0.23805E+00  0.83118E-01  0.91802E+00
  0.24718E+00  0.83118E-01  0.91802E+00
  0.25260E+00  0.83118E-01  0.91802E+00
  0.22619E+00  0.88538E-01  0.91802E+00
  0.23805E+00  0.88538E-01  0.91802E+00
  0.24718E+00  0.88538E-01  0.91802E+00
  0.25260E+00  0.88538E-01  0.91802E+00
  0.24718E+00  0.73986E-01  0.98408E+00
  0.25260E+00  0.73986E-01  0.98408E+00
  0.22619E+00  0.83118E-01  0.98408E+00
  0.23805E+00  0.83118E-01  0.98408E+00
  0.24718E+00  0.83118E-01  0.98408E+00
  0.25260E+00  0.83118E-01  0.98408E+00
  0.22619E+00  0.88538E-01  0.98408E+00
  0.23805E+00  0.88538E-01  0.98408E+00
  0.24718E+00  0.88538E-01  0.98408E+00
  0.25260E+00  0.88538E-01  0.98408E+00
  0.32008E+00  0.35529E-01  0.15920E-01
  0.32921E+00  0.35529E-01  0.15920E-01
  0.33463E+00  0.35529E-01  0.15920E-01
  0.29492E+00  0.48828E-01  0.15920E-01
  0.30822E+00  0.48828E-01  0.15920E-01
  0.32008E+00  0.48828E-01  0.15920E-01
  0.32921E+00  0.48828E-01  0.15920E-01
  0.33463E+00  0.48828E-01  0.15920E-01
  0.26063E+00  0.62128E-01  0.15920E-01
  0.26976E+00  0.62128E-01  0.15920E-01
  0.28162E+00  0.62128E-01  0.15920E-01
  0.29492E+00  0.62128E-01  0.15920E-01
  0.30822E+00  0.62128E-01  0.15920E-01
  0.32008E+00  0.62128E-01  0.15920E-01
  0.32921E+00  0.62128E-01  0.15920E-01
  0.33463E+00  0.62128E-01  0.15920E-01
  0.25521E+00  0.73986E-01  0.15920E-01
  0.26063E+00  0.73986E-01  0.15920E-01
  0.26976E+00  0.73986E-01  0.15920E-01
  0.28162E+00  0.73986E-01  0.15920E-01
  0.29492E+00  0.73986E-01  0.15920E-01
  0.30822E+00  0.73986E-01  0.15920E-01
  0.32008E+00  0.73986E-01  0.15920E-01
  0.32921E+00  0.73986E-01  0.15920E-01
  0.33463E+00  0.73986E-01  0.15920E-01
  0.25521E+00  0.83118E-01  0.15920E-01
  0.26063E+00  0.83118E-01  0.15920E-01
  0.26976E+00  0.83118E-01  0.15920E-01
  0.28162E+00  0.83118E-01  0.15920E-01
  0.29492E+00  0.83118E-01  0.15920E-01
  0.30822E+00  0.83118E-01  0.15920E-01
  0.32008E+00  0.83118E-01  0.15920E-01
  0.32921E+00  0.83118E-01  0.15920E-01
  0.33463E+00  0.83118E-01  0.15920E-01
  0.25521E+00  0.88538E-01  0.15920E-01
  0.26063E+00  0.88538E-01  0.15920E-01
  0.26976E+00  0.88538E-01  0.15920E-01
  0.28162E+00  0.88538E-01  0.15920E-01
  0.29492E+00  0.88538E-01  0.15920E-01
  0.30822E+00  0.88538E-01  0.15920E-01
  0.32008E+00  0.88538E-01  0.15920E-01
  0.32921E+00  0.88538E-01  0.15920E-01
  0.33463E+00  0.88538E-01  0.15920E-01
  0.32008E+00  0.35529E-01  0.81984E-01
  0.32921E+00  0.35529E-01  0.81984E-01
  0.33463E+00  0.35529E-01  0.81984E-01
  0.29492E+00  0.48828E-01  0.81984E-01
  0.30822E+00  0.48828E-01  0.81984E-01
  0.32008E+00  0.48828E-01  0.81984E-01
  0.32921E+00  0.48828E-01  0.81984E-01
  0.33463E+00  0.48828E-01  0.81984E-01
  0.26063E+00  0.62128E-01  0.81984E-01
  0.26976E+00  0.62128E-01  0.81984E-01
  0.28162E+00  0.62128E-01  0.81984E-01
  0.29492E+00  0.62128E-01  0.81984E-01
  0.30822E+00  0.62128E-01  0.81984E-01
  0.32008E+00  0.62128E-01  0.81984E-01
  0.32921E+00  0.62128E-01  0.81984E-01
  0.33463E+00  0.62128E-01  0.81984E-01
  0.25521E+00  0.73986E-01  0.81984E-01
  0.26063E+00  0.73986E-01  0.81984E-01
  0.26976E+00  0.73986E-01  0.81984E-01
  0.28162E+00  0.73986E-01  0.81984E-01
  0.29492E+00  0.73986E-01  0.81984E-01
  0.30822E+00  0.73986E-01  0.81984E-01
  0.32008E+00  0.73986E-01  0.81984E-01
  0.32921E+00  0.73986E-01  0.81984E-01
  0.33463E+00  0.73986E-01  0.81984E-01
  0.25521E+00  0.83118E-01  0.81984E-01
  0.26063E+00  0.83118E-01  0.81984E-01
  0.26976E+00  0.83118E-01  0.81984E-01
  0.28162E+00  0.83118E-01  0.81984E-01
  0.29492E+00  0.83118E-01  0.81984E-01
  0.30822E+00  0.83118E-01  0.81984E-01
  0.32008E+00  0.83118E-01  0.81984E-01
  0.32921E+00  0.83118E-01  0.81984E-01
  0.33463E+00  0.83118E-01  0.81984E-01
  0.25521E+00  0.88538E-01  0.81984E-01
  0.26063E+00  0.88538E-01  0.81984E-01
  0.26976E+00  0.88538E-01  0.81984E-01
  0.28162E+00  0.88538E-01  0.81984E-01
  0.29492E+00  0.88538E-01  0.81984E-01
  0.30822E+00  0.88538E-01  0.81984E-01
  0.32008E+00  0.88538E-01  0.81984E-01
  0.32921E+00  0.88538E-01  0.81984E-01
  0.33463E+00  0.88538E-01  0.81984E-01
  0.32008E+00  0.35529E-01  0.19331E+00
  0.32921E+00  0.35529E-01  0.19331E+00
  0.33463E+00  0.35529E-01  0.19331E+00
  0.29492E+00  0.48828E-01  0.19331E+00
  0.30822E+00  0.48828E-01  0.19331E+00
  0.32008E+00  0.48828E-01  0.19331E+00
  0.32921E+00  0.48828E-01  0.19331E+00
  0.33463E+00  0.48828E-01  0.19331E+00
  0.26063E+00  0.62128E-01  0.19331E+00
  0.26976E+00  0.62128E-01  0.19331E+00
  0.28162E+00  0.62128E-01  0.19331E+00
  0.29492E+00  0.62128E-01  0.19331E+00
  0.30822E+00  0.62128E-01  0.19331E+00
  0.32008E+00  0.62128E-01  0.19331E+00
  0.32921E+00  0.62128E-01  0.19331E+00
  0.33463E+00  0.62128E-01  0.19331E+00
  0.25521E+00  0.73986E-01  0.19331E+00
  0.26063E+00  0.73986E-01  0.19331E+00
  0.26976E+00  0.73986E-01  0.19331E+00
  0.28162E+00  0.73986E-01  0.19331E+00
  0.29492E+00  0.73986E-01  0.19331E+00
  0.30822E+00  0.73986E-01  0.19331E+00
  0.32008E+00  0.73986E-01  0.19331E+00
  0.32921E+00  0.73986E-01  0.19331E+00
  0.33463E+00  0.73986E-01  0.19331E+00
  0.25521E+00  0.83118E-01  0.19331E+00
  0.26063E+00  0.83118E-01  0.19331E+00
  0.26976E+00  0.83118E-01  0.19331E+00
  0.28162E+00  0.83118E-01  0.19331E+00
  0.29492E+00  0.83118E-01  0.19331E+00
  0.30822E+00  0.83118E-01  0.19331E+00
  0.32008E+00  0.83118E-01  0.19331E+00
  0.32921E+00  0.83118E-01  0.19331E+00
  0.33463E+00  0.83118E-01  0.19331E+00
  0.25521E+00  0.88538E-01  0.19331E+00
  0.26063E+00  0.88538E-01  0.19331E+00
  0.26976E+00  0.88538E-01  0.19331E+00
  0.28162E+00  0.88538E-01  0.19331E+00
  0.29492E+00  0.88538E-01  0.19331E+00
  0.30822E+00  0.88538E-01  0.19331E+00
  0.32008E+00  0.88538E-01  0.19331E+00
  0.32921E+00  0.88538E-01  0.19331E+00
  0.33463E+00  0.88538E-01  0.19331E+00
  0.32008E+00  0.35529E-01  0.33787E+00
  0.32921E+00  0.35529E-01  0.33787E+00
  0.33463E+00  0.35529E-01  0.33787E+00
  0.29492E+00  0.48828E-01  0.33787E+00
  0.30822E+00  0.48828E-01  0.33787E+00
  0.32008E+00  0.48828E-01  0.33787E+00
  0.32921E+00  0.48828E-01  0.33787E+00
  0.33463E+00  0.48828E-01  0.33787E+00
  0.26063E+00  0.62128E-01  0.33787E+00
  0.26976E+00  0.62128E-01  0.33787E+00
  0.28162E+00  0.62128E-01  0.33787E+00
  0.29492E+00  0.62128E-01  0.33787E+00
  0.30822E+00  0.62128E-01  0.33787E+00
  0.32008E+00  0.62128E-01  0.33787E+00
  0.32921E+00  0.62128E-01  0.33787E+00
  0.33463E+00  0.62128E-01  0.33787E+00
  0.25521E+00  0.73986E-01  0.33787E+00
  0.26063E+00  0.73986E-01  0.33787E+00
  0.26976E+00  0.73986E-01  0.33787E+00
  0.28162E+00  0.73986E-01  0.33787E+00
  0.29492E+00  0.73986E-01  0.33787E+00
  0.30822E+00  0.73986E-01  0.33787E+00
  0.32008E+00  0.73986E-01  0.33787E+00
  0.32921E+00  0.73986E-01  0.33787E+00
  0.33463E+00  0.73986E-01  0.33787E+00
  0.25521E+00  0.83118E-01  0.33787E+00
  0.26063E+00  0.83118E-01  0.33787E+00
  0.26976E+00  0.83118E-01  0.33787E+00
  0.28162E+00  0.83118E-01  0.33787E+00
  0.29492E+00  0.83118E-01  0.33787E+00
  0.30822E+00  0.83118E-01  0.33787E+00
  0.32008E+00  0.83118E-01  0.33787E+00
  0.32921E+00  0.83118E-01  0.33787E+00
  0.33463E+00  0.83118E-01  0.33787E+00
  0.25521E+00  0.88538E-01  0.33787E+00
  0.26063E+00  0.88538E-01  0.33787E+00
  0.26976E+00  0.88538E-01  0.33787E+00
  0.28162E+00  0.88538E-01  0.33787E+00
  0.29492E+00  0.88538E-01  0.33787E+00
  0.30822E+00  0.88538E-01  0.33787E+00
  0.32008E+00  0.88538E-01  0.33787E+00
  0.32921E+00  0.88538E-01  0.33787E+00
  0.33463E+00  0.88538E-01  0.33787E+00
  0.32008E+00  0.35529E-01  0.50000E+00
  0.32921E+00  0.35529E-01  0.50000E+00
  0.33463E+00  0.35529E-01  0.50000E+00
  0.29492E+00  0.48828E-01  0.50000E+00
  0.30822E+00  0.48828E-01  0.50000E+00
  0.32008E+00  0.48828E-01  0.50000E+00
  0.32921E+00  0.48828E-01  0.50000E+00
  0.33463E+00  0.48828E-01  0.50000E+00
  0.26063E+00  0.62128E-01  0.50000E+00
  0.26976E+00  0.62128E-01  0.50000E+00
  0.28162E+00  0.62128E-01  0.50000E+00
  0.29492E+00  0.62128E-01  0.50000E+00
  0.30822E+00  0.62128E-01  0.50000E+00
  0.32008E+00  0.62128E-01  0.50000E+00
  0.32921E+00  0.62128E-01  0.50000E+00
  0.33463E+00  0.62128E-01  0.50000E+00
  0.25521E+00  0.73986E-01  0.50000E+00
  0.26063E+00  0.73986E-01  0.50000E+00
  0.26976E+00  0.73986E-01  0.50000E+00
  0.28162E+00  0.73986E-01  0.50000E+00
  0.29492E+00  0.73986E-01  0.50000E+00
  0.30822E+00  0.73986E-01  0.50000E+00
  0.32008E+00  0.73986E-01  0.50000E+00
  0.32921E+00  0.73986E-01  0.50000E+00
  0.33463E+00  0.73986E-01  0.50000E+00
  0.25521E+00  0.83118E-01  0.50000E+00
  0.26063E+00  0.83118E-01  0.50000E+00
  0.26976E+00  0.83118E-01  0.50000E+00
  0.28162E+00  0.83118E-01  0.50000E+00
  0.29492E+00  0.83118E-01  0.50000E+00
  0.30822E+00  0.83118E-01  0.50000E+00
  0.32008E+00  0.83118E-01  0.50000E+00
  0.32921E+00  0.83118E-01  0.50000E+00
  0.33463E+00  0.83118E-01  0.50000E+00
  0.25521E+00  0.88538E-01  0.50000E+00
  0.26063E+00  0.88538E-01  0.50000E+00
  0.26976E+00  0.88538E-01  0.50000E+00
  0.28162E+00  0.88538E-01  0.50000E+00
  0.29492E+00  0.88538E-01  0.50000E+00
  0.30822E+00  0.88538E-01  0.50000E+00
  0.32008E+00  0.88538E-01  0.50000E+00
  0.32921E+00  0.88538E-01  0.50000E+00
  0.33463E+00  0.88538E-01  0.50000E+00
  0.32008E+00  0.35529E-01  0.66213E+00
  0.32921E+00  0.35529E-01  0.66213E+00
  0.33463E+00  0.35529E-01  0.66213E+00
  0.29492E+00  0.48828E-01  0.66213E+00
  0.30822E+00  0.48828E-01  0.66213E+00
  0.32008E+00  0.48828E-01  0.66213E+00
  0.32921E+00  0.48828E-01  0.66213E+00
  0.33463E+00  0.48828E-01  0.66213E+00
  0.26063E+00  0.62128E-01  0.66213E+00
  0.26976E+00  0.62128E-01  0.66213E+00
  0.28162E+00  0.62128E-01  0.66213E+00
  0.29492E+00  0.62128E-01  0.66213E+00
  0.30822E+00  0.62128E-01  0.66213E+00
  0.32008E+00  0.62128E-01  0.66213E+00
  0.32921E+00  0.62128E-01  0.66213E+00
  0.33463E+00  0.62128E-01  0.66213E+00
  0.25521E+00  0.73986E-01  0.66213E+00
  0.26063E+00  0.73986E-01  0.66213E+00
  0.26976E+00  0.73986E-01  0.66213E+00
  0.28162E+00  0.73986E-01  0.66213E+00
  0.29492E+00  0.73986E-01  0.66213E+00
  0.30822E+00  0.73986E-01  0.66213E+00
  0.32008E+00  0.73986E-01  0.66213E+00
  0.32921E+00  0.73986E-01  0.66213E+00
  0.33463E+00  0.73986E-01  0.66213E+00
  0.25521E+00  0.83118E-01  0.66213E+00
  0.26063E+00  0.83118E-01  0.66213E+00
  0.26976E+00  0.83118E-01  0.66213E+00
  0.28162E+00  0.83118E-01  0.66213E+00
  0.29492E+00  0.83118E-01  0.66213E+00
  0.30822E+00  0.83118E-01  0.66213E+00
  0.32008E+00  0.83118E-01  0.66213E+00
  0.32921E+00  0.83118E-01  0.66213E+00
  0.33463E+00  0.83118E-01  0.66213E+00
  0.25521E+00  0.88538E-01  0.66213E+00
  0.26063E+00  0.88538E-01  0.66213E+00
  0.26976E+00  0.88538E-01  0.66213E+00
  0.28162E+00  0.88538E-01  0.66213E+00
  0.29492E+00  0.88538E-01  0.66213E+00
  0.30822E+00  0.88538E-01  0.66213E+00
  0.32008E+00  0.88538E-01  0.66213E+00
  0.32921E+00  0.88538E-01  0.66213E+00
  0.33463E+00  0.88538E-01  0.66213E+00
  0.32008E+00  0.35529E-01  0.80669E+00
  0.32921E+00  0.35529E-01  0.80669E+00
  0.33463E+00  0.35529E-01  0.80669E+00
  0.29492E+00  0.48828E-01  0.80669E+00
  0.30822E+00  0.48828E-01  0.80669E+00
  0.32008E+00  0.48828E-01  0.80669E+00
  0.32921E+00  0.48828E-01  0.80669E+00
  0.33463E+00  0.48828E-01  0.80669E+00
  0.26063E+00  0.62128E-01  0.80669E+00
  0.26976E+00  0.62128E-01  0.80669E+00
  0.28162E+00  0.62128E-01  0.80669E+00
  0.29492E+00  0.62128E-01  0.80669E+00
  0.30822E+00  0.62128E-01  0.80669E+00
  0.32008E+00  0.62128E-01  0.80669E+00
  0.32921E+00  0.62128E-01  0.80669E+00
  0.33463E+00  0.62128E-01  0.80669E+00
  0.25521E+00  0.73986E-01  0.80669E+00
  0.26063E+00  0.73986E-01  0.80669E+00
  0.26976E+00  0.73986E-01  0.80669E+00
  0.28162E+00  0.73986E-01  0.80669E+00
  0.29492E+00  0.73986E-01  0.80669E+00
  0.30822E+00  0.73986E-01  0.80669E+00
  0.32008E+00  0.73986E-01  0.80669E+00
  0.32921E+00  0.73986E-01  0.80669E+00
  0.33463E+00  0.73986E-01  0.80669E+00
  0.25521E+00  0.83118E-01  0.80669E+00
  0.26063E+00  0.83118E-01  0.80669E+00
  0.26976E+00  0.83118E-01  0.80669E+00
  0.28162E+00  0.83118E-01  0.80669E+00
  0.29492E+00  0.83118E-01  0.80669E+00
  0.30822E+00  0.83118E-01  0.80669E+00
  0.32008E+00  0.83118E-01  0.80669E+00
  0.32921E+00  0.83118E-01  0.80669E+00
  0.33463E+00  0.83118E-01  0.80669E+00
  0.25521E+00  0.88538E-01  0.80669E+00
  0.26063E+00  0.88538E-01  0.80669E+00
  0.26976E+00  0.88538E-01  0.80669E+00
  0.28162E+00  0.88538E-01  0.80669E+00
  0.29492E+00  0.88538E-01  0.80669E+00
  0.30822E+00  0.88538E-01  0.80669E+00
  0.32008E+00  0.88538E-01  0.80669E+00
  0.32921E+00  0.88538E-01  0.80669E+00
  0.33463E+00  0.88538E-01  0.80669E+00
  0.32008E+00  0.35529E-01  0.91802E+00
  0.32921E+00  0.35529E-01  0.91802E+00
  0.33463E+00  0.35529E-01  0.91802E+00
  0.29492E+00  0.48828E-01  0.91802E+00
  0.30822E+00  0.48828E-01  0.91802E+00
  0.32008E+00  0.48828E-01  0.91802E+00
  0.32921E+00  0.48828E-01  0.91802E+00
  0.33463E+00  0.48828E-01  0.91802E+00
  0.26063E+00  0.62128E-01  0.91802E+00
  0.26976E+00  0.62128E-01  0.91802E+00
  0.28162E+00  0.62128E-01  0.91802E+00
  0.29492E+00  0.62128E-01  0.91802E+00
  0.30822E+00  0.62128E-01  0.91802E+00
  0.32008E+00  0.62128E-01  0.91802E+00
  0.32921E+00  0.62128E-01  0.91802E+00
  0.33463E+00  0.62128E-01  0.91802E+00
  0.25521E+00  0.73986E-01  0.91802E+00
  0.26063E+00  0.73986E-01  0.91802E+00
  0.26976E+00  0.73986E-01  0.91802E+00
  0.28162E+00  0.73986E-01  0.91802E+00
  0.29492E+00  0.73986E-01  0.91802E+00
  0.30822E+00  0.73986E-01  0.91802E+00
  0.32008E+00  0.73986E-01  0.91802E+00
  0.32921E+00  0.73986E-01  0.91802E+00
  0.33463E+00  0.73986E-01  0.91802E+00
  0.25521E+00  0.83118E-01  0.91802E+00
  0.26063E+00  0.83118E-01  0.91802E+00
  0.26976E+00  0.83118E-01  0.91802E+00
  0.28162E+00  0.83118E-01  0.91802E+00
  0.29492E+00  0.83118E-01  0.91802E+00
  0.30822E+00  0.83118E-01  0.91802E+00
  0.32008E+00  0.83118E-01  0.91802E+00
  0.32921E+00  0.83118E-01  0.91802E+00
  0.33463E+00  0.83118E-01  0.91802E+00
  0.25521E+00  0.88538E-01  0.91802E+00
  0.26063E+00  0.88538E-01  0.91802E+00
  0.26976E+00  0.88538E-01  0.91802E+00
  0.28162E+00  0.88538E-01  0.91802E+00
  0.29492E+00  0.88538E-01  0.91802E+00
  0.30822E+00  0.88538E-01  0.91802E+00
  0.32008E+00  0.88538E-01  0.91802E+00
  0.32921E+00  0.88538E-01  0.91802E+00
  0.33463E+00  0.88538E-01  0.91802E+00
  0.32008E+00  0.35529E-01  0.98408E+00
  0.32921E+00  0.35529E-01  0.98408E+00
  0.33463E+00  0.35529E-01  0.98408E+00
  0.29492E+00  0.48828E-01  0.98408E+00
  0.30822E+00  0.48828E-01  0.98408E+00
  0.32008E+00  0.48828E-01  0.98408E+00
  0.32921E+00  0.48828E-01  0.98408E+00
  0.33463E+00  0.48828E-01  0.98408E+00
  0.26063E+00  0.62128E-01  0.98408E+00
  0.26976E+00  0.62128E-01  0.98408E+00
  0.28162E+00  0.62128E-01  0.98408E+00
  0.29492E+00  0.62128E-01  0.98408E+00
  0.30822E+00  0.62128E-01  0.98408E+00
  0.32008E+00  0.62128E-01  0.98408E+00
  0.32921E+00  0.62128E-01  0.98408E+00
  0.33463E+00  0.62128E-01  0.98408E+00
  0.25521E+00  0.73986E-01  0.98408E+00
  0.26063E+00  0.73986E-01  0.98408E+00
  0.26976E+00  0.73986E-01  0.98408E+00
  0.28162E+00  0.73986E-01  0.98408E+00
  0.29492E+00  0.73986E-01  0.98408E+00
  0.30822E+00  0.73986E-01  0.98408E+00
  0.32008E+00  0.73986E-01  0.98408E+00
  0.32921E+00  0.73986E-01  0.98408E+00
  0.33463E+00  0.73986E-01  0.98408E+00
  0.25521E+00  0.83118E-01  0.98408E+00
  0.26063E+00  0.83118E-01  0.98408E+00
  0.26976E+00  0.83118E-01  0.98408E+00
  0.28162E+00  0.83118E-01  0.98408E+00
  0.29492E+00  0.83118E-01  0.98408E+00
  0.30822E+00  0.83118E-01  0.98408E+00
  0.32008E+00  0.83118E-01  0.98408E+00
  0.32921E+00  0.83118E-01  0.98408E+00
  0.33463E+00  0.83118E-01  0.98408E+00