TITLE = "Points"
VARIABLES = "x","y","z"
ZONE I=26376,J=2,K=1, DATAPACKING=POINT
 -0.24396E+00 -0.21066E-01  0.34716E-02
 -0.24396E+00 -0.21066E-01  0.16500E-01
 -0.24396E+00 -0.21066E-01  0.33500E-01
 -0.24396E+00 -0.21066E-01  0.46528E-01
 -0.23255E+00 -0.21066E-01  0.34716E-02
 -0.23255E+00 -0.21066E-01  0.16500E-01
 -0.23255E+00 -0.21066E-01  0.33500E-01
 -0.23255E+00 -0.21066E-01  0.46528E-01
 -0.22381E+00 -0.21066E-01  0.34716E-02
 -0.22381E+00 -0.21066E-01  0.16500E-01
 -0.22381E+00 -0.21066E-01  0.33500E-01
 -0.22381E+00 -0.21066E-01  0.46528E-01
 -0.24396E+00 -0.24564E-01  0.34716E-02
 -0.24396E+00 -0.24564E-01  0.16500E-01
 -0.24396E+00 -0.24564E-01  0.33500E-01
 -0.24396E+00 -0.24564E-01  0.46528E-01
 -0.23255E+00 -0.24564E-01  0.34716E-02
 -0.23255E+00 -0.24564E-01  0.16500E-01
 -0.23255E+00 -0.24564E-01  0.33500E-01
 -0.23255E+00 -0.24564E-01  0.46528E-01
 -0.22381E+00 -0.24564E-01  0.34716E-02
 -0.22381E+00 -0.24564E-01  0.16500E-01
 -0.22381E+00 -0.24564E-01  0.33500E-01
 -0.22381E+00 -0.24564E-01  0.46528E-01
 -0.24396E+00 -0.21066E-01  0.53472E-01
 -0.24396E+00 -0.21066E-01  0.66500E-01
 -0.24396E+00 -0.21066E-01  0.83500E-01
 -0.24396E+00 -0.21066E-01  0.96528E-01
 -0.23255E+00 -0.21066E-01  0.53472E-01
 -0.23255E+00 -0.21066E-01  0.66500E-01
 -0.23255E+00 -0.21066E-01  0.83500E-01
 -0.23255E+00 -0.21066E-01  0.96528E-01
 -0.22381E+00 -0.21066E-01  0.53472E-01
 -0.22381E+00 -0.21066E-01  0.66500E-01
 -0.22381E+00 -0.21066E-01  0.83500E-01
 -0.22381E+00 -0.21066E-01  0.96528E-01
 -0.24396E+00 -0.24564E-01  0.53472E-01
 -0.24396E+00 -0.24564E-01  0.66500E-01
 -0.24396E+00 -0.24564E-01  0.83500E-01
 -0.24396E+00 -0.24564E-01  0.96528E-01
 -0.23255E+00 -0.24564E-01  0.53472E-01
 -0.23255E+00 -0.24564E-01  0.66500E-01
 -0.23255E+00 -0.24564E-01  0.83500E-01
 -0.23255E+00 -0.24564E-01  0.96528E-01
 -0.22381E+00 -0.24564E-01  0.53472E-01
 -0.22381E+00 -0.24564E-01  0.66500E-01
 -0.22381E+00 -0.24564E-01  0.83500E-01
 -0.22381E+00 -0.24564E-01  0.96528E-01
 -0.24396E+00 -0.76434E-02  0.34716E-02
 -0.24396E+00 -0.76434E-02  0.16500E-01
 -0.24396E+00 -0.76434E-02  0.33500E-01
 -0.24396E+00 -0.76434E-02  0.46528E-01
 -0.23255E+00 -0.76434E-02  0.34716E-02
 -0.23255E+00 -0.76434E-02  0.16500E-01
 -0.23255E+00 -0.76434E-02  0.33500E-01
 -0.23255E+00 -0.76434E-02  0.46528E-01
 -0.22381E+00 -0.76434E-02  0.34716E-02
 -0.22381E+00 -0.76434E-02  0.16500E-01
 -0.22381E+00 -0.76434E-02  0.33500E-01
 -0.22381E+00 -0.76434E-02  0.46528E-01
 -0.24396E+00 -0.11141E-01  0.34716E-02
 -0.24396E+00 -0.11141E-01  0.16500E-01
 -0.24396E+00 -0.11141E-01  0.33500E-01
 -0.24396E+00 -0.11141E-01  0.46528E-01
 -0.23255E+00 -0.11141E-01  0.34716E-02
 -0.23255E+00 -0.11141E-01  0.16500E-01
 -0.23255E+00 -0.11141E-01  0.33500E-01
 -0.23255E+00 -0.11141E-01  0.46528E-01
 -0.22381E+00 -0.11141E-01  0.34716E-02
 -0.22381E+00 -0.11141E-01  0.16500E-01
 -0.22381E+00 -0.11141E-01  0.33500E-01
 -0.22381E+00 -0.11141E-01  0.46528E-01
 -0.24396E+00 -0.15705E-01  0.34716E-02
 -0.24396E+00 -0.15705E-01  0.16500E-01
 -0.24396E+00 -0.15705E-01  0.33500E-01
 -0.24396E+00 -0.15705E-01  0.46528E-01
 -0.23255E+00 -0.15705E-01  0.34716E-02
 -0.23255E+00 -0.15705E-01  0.16500E-01
 -0.23255E+00 -0.15705E-01  0.33500E-01
 -0.23255E+00 -0.15705E-01  0.46528E-01
 -0.22381E+00 -0.15705E-01  0.34716E-02
 -0.22381E+00 -0.15705E-01  0.16500E-01
 -0.22381E+00 -0.15705E-01  0.33500E-01
 -0.22381E+00 -0.15705E-01  0.46528E-01
 -0.24396E+00 -0.19202E-01  0.34716E-02
 -0.24396E+00 -0.19202E-01  0.16500E-01
 -0.24396E+00 -0.19202E-01  0.33500E-01
 -0.24396E+00 -0.19202E-01  0.46528E-01
 -0.23255E+00 -0.19202E-01  0.34716E-02
 -0.23255E+00 -0.19202E-01  0.16500E-01
 -0.23255E+00 -0.19202E-01  0.33500E-01
 -0.23255E+00 -0.19202E-01  0.46528E-01
 -0.22381E+00 -0.19202E-01  0.34716E-02
 -0.22381E+00 -0.19202E-01  0.16500E-01
 -0.22381E+00 -0.19202E-01  0.33500E-01
 -0.22381E+00 -0.19202E-01  0.46528E-01
 -0.24396E+00 -0.76434E-02  0.53472E-01
 -0.24396E+00 -0.76434E-02  0.66500E-01
 -0.24396E+00 -0.76434E-02  0.83500E-01
 -0.24396E+00 -0.76434E-02  0.96528E-01
 -0.23255E+00 -0.76434E-02  0.53472E-01
 -0.23255E+00 -0.76434E-02  0.66500E-01
 -0.23255E+00 -0.76434E-02  0.83500E-01
 -0.23255E+00 -0.76434E-02  0.96528E-01
 -0.22381E+00 -0.76434E-02  0.53472E-01
 -0.22381E+00 -0.76434E-02  0.66500E-01
 -0.22381E+00 -0.76434E-02  0.83500E-01
 -0.22381E+00 -0.76434E-02  0.96528E-01
 -0.24396E+00 -0.11141E-01  0.53472E-01
 -0.24396E+00 -0.11141E-01  0.66500E-01
 -0.24396E+00 -0.11141E-01  0.83500E-01
 -0.24396E+00 -0.11141E-01  0.96528E-01
 -0.23255E+00 -0.11141E-01  0.53472E-01
 -0.23255E+00 -0.11141E-01  0.66500E-01
 -0.23255E+00 -0.11141E-01  0.83500E-01
 -0.23255E+00 -0.11141E-01  0.96528E-01
 -0.22381E+00 -0.11141E-01  0.53472E-01
 -0.22381E+00 -0.11141E-01  0.66500E-01
 -0.22381E+00 -0.11141E-01  0.83500E-01
 -0.22381E+00 -0.11141E-01  0.96528E-01
 -0.24396E+00 -0.15705E-01  0.53472E-01
 -0.24396E+00 -0.15705E-01  0.66500E-01
 -0.24396E+00 -0.15705E-01  0.83500E-01
 -0.24396E+00 -0.15705E-01  0.96528E-01
 -0.23255E+00 -0.15705E-01  0.53472E-01
 -0.23255E+00 -0.15705E-01  0.66500E-01
 -0.23255E+00 -0.15705E-01  0.83500E-01
 -0.23255E+00 -0.15705E-01  0.96528E-01
 -0.22381E+00 -0.15705E-01  0.53472E-01
 -0.22381E+00 -0.15705E-01  0.66500E-01
 -0.22381E+00 -0.15705E-01  0.83500E-01
 -0.22381E+00 -0.15705E-01  0.96528E-01
 -0.24396E+00 -0.19202E-01  0.53472E-01
 -0.24396E+00 -0.19202E-01  0.66500E-01
 -0.24396E+00 -0.19202E-01  0.83500E-01
 -0.24396E+00 -0.19202E-01  0.96528E-01
 -0.23255E+00 -0.19202E-01  0.53472E-01
 -0.23255E+00 -0.19202E-01  0.66500E-01
 -0.23255E+00 -0.19202E-01  0.83500E-01
 -0.23255E+00 -0.19202E-01  0.96528E-01
 -0.22381E+00 -0.19202E-01  0.53472E-01
 -0.22381E+00 -0.19202E-01  0.66500E-01
 -0.22381E+00 -0.19202E-01  0.83500E-01
 -0.22381E+00 -0.19202E-01  0.96528E-01
 -0.24396E+00  0.57794E-02  0.34716E-02
 -0.24396E+00  0.57794E-02  0.16500E-01
 -0.24396E+00  0.57794E-02  0.33500E-01
 -0.24396E+00  0.57794E-02  0.46528E-01
 -0.23255E+00  0.57794E-02  0.34716E-02
 -0.23255E+00  0.57794E-02  0.16500E-01
 -0.23255E+00  0.57794E-02  0.33500E-01
 -0.23255E+00  0.57794E-02  0.46528E-01
 -0.22381E+00  0.57794E-02  0.34716E-02
 -0.22381E+00  0.57794E-02  0.16500E-01
 -0.22381E+00  0.57794E-02  0.33500E-01
 -0.22381E+00  0.57794E-02  0.46528E-01
 -0.24396E+00  0.22818E-02  0.34716E-02
 -0.24396E+00  0.22818E-02  0.16500E-01
 -0.24396E+00  0.22818E-02  0.33500E-01
 -0.24396E+00  0.22818E-02  0.46528E-01
 -0.23255E+00  0.22818E-02  0.34716E-02
 -0.23255E+00  0.22818E-02  0.16500E-01
 -0.23255E+00  0.22818E-02  0.33500E-01
 -0.23255E+00  0.22818E-02  0.46528E-01
 -0.22381E+00  0.22818E-02  0.34716E-02
 -0.22381E+00  0.22818E-02  0.16500E-01
 -0.22381E+00  0.22818E-02  0.33500E-01
 -0.22381E+00  0.22818E-02  0.46528E-01
 -0.24396E+00 -0.22818E-02  0.34716E-02
 -0.24396E+00 -0.22818E-02  0.16500E-01
 -0.24396E+00 -0.22818E-02  0.33500E-01
 -0.24396E+00 -0.22818E-02  0.46528E-01
 -0.23255E+00 -0.22818E-02  0.34716E-02
 -0.23255E+00 -0.22818E-02  0.16500E-01
 -0.23255E+00 -0.22818E-02  0.33500E-01
 -0.23255E+00 -0.22818E-02  0.46528E-01
 -0.22381E+00 -0.22818E-02  0.34716E-02
 -0.22381E+00 -0.22818E-02  0.16500E-01
 -0.22381E+00 -0.22818E-02  0.33500E-01
 -0.22381E+00 -0.22818E-02  0.46528E-01
 -0.24396E+00 -0.57794E-02  0.34716E-02
 -0.24396E+00 -0.57794E-02  0.16500E-01
 -0.24396E+00 -0.57794E-02  0.33500E-01
 -0.24396E+00 -0.57794E-02  0.46528E-01
 -0.23255E+00 -0.57794E-02  0.34716E-02
 -0.23255E+00 -0.57794E-02  0.16500E-01
 -0.23255E+00 -0.57794E-02  0.33500E-01
 -0.23255E+00 -0.57794E-02  0.46528E-01
 -0.22381E+00 -0.57794E-02  0.34716E-02
 -0.22381E+00 -0.57794E-02  0.16500E-01
 -0.22381E+00 -0.57794E-02  0.33500E-01
 -0.22381E+00 -0.57794E-02  0.46528E-01
 -0.24396E+00  0.57794E-02  0.53472E-01
 -0.24396E+00  0.57794E-02  0.66500E-01
 -0.24396E+00  0.57794E-02  0.83500E-01
 -0.24396E+00  0.57794E-02  0.96528E-01
 -0.23255E+00  0.57794E-02  0.53472E-01
 -0.23255E+00  0.57794E-02  0.66500E-01
 -0.23255E+00  0.57794E-02  0.83500E-01
 -0.23255E+00  0.57794E-02  0.96528E-01
 -0.22381E+00  0.57794E-02  0.53472E-01
 -0.22381E+00  0.57794E-02  0.66500E-01
 -0.22381E+00  0.57794E-02  0.83500E-01
 -0.22381E+00  0.57794E-02  0.96528E-01
 -0.24396E+00  0.22818E-02  0.53472E-01
 -0.24396E+00  0.22818E-02  0.66500E-01
 -0.24396E+00  0.22818E-02  0.83500E-01
 -0.24396E+00  0.22818E-02  0.96528E-01
 -0.23255E+00  0.22818E-02  0.53472E-01
 -0.23255E+00  0.22818E-02  0.66500E-01
 -0.23255E+00  0.22818E-02  0.83500E-01
 -0.23255E+00  0.22818E-02  0.96528E-01
 -0.22381E+00  0.22818E-02  0.53472E-01
 -0.22381E+00  0.22818E-02  0.66500E-01
 -0.22381E+00  0.22818E-02  0.83500E-01
 -0.22381E+00  0.22818E-02  0.96528E-01
 -0.24396E+00 -0.22818E-02  0.53472E-01
 -0.24396E+00 -0.22818E-02  0.66500E-01
 -0.24396E+00 -0.22818E-02  0.83500E-01
 -0.24396E+00 -0.22818E-02  0.96528E-01
 -0.23255E+00 -0.22818E-02  0.53472E-01
 -0.23255E+00 -0.22818E-02  0.66500E-01
 -0.23255E+00 -0.22818E-02  0.83500E-01
 -0.23255E+00 -0.22818E-02  0.96528E-01
 -0.22381E+00 -0.22818E-02  0.53472E-01
 -0.22381E+00 -0.22818E-02  0.66500E-01
 -0.22381E+00 -0.22818E-02  0.83500E-01
 -0.22381E+00 -0.22818E-02  0.96528E-01
 -0.24396E+00 -0.57794E-02  0.53472E-01
 -0.24396E+00 -0.57794E-02  0.66500E-01
 -0.24396E+00 -0.57794E-02  0.83500E-01
 -0.24396E+00 -0.57794E-02  0.96528E-01
 -0.23255E+00 -0.57794E-02  0.53472E-01
 -0.23255E+00 -0.57794E-02  0.66500E-01
 -0.23255E+00 -0.57794E-02  0.83500E-01
 -0.23255E+00 -0.57794E-02  0.96528E-01
 -0.22381E+00 -0.57794E-02  0.53472E-01
 -0.22381E+00 -0.57794E-02  0.66500E-01
 -0.22381E+00 -0.57794E-02  0.83500E-01
 -0.22381E+00 -0.57794E-02  0.96528E-01
 -0.24396E+00  0.19202E-01  0.34716E-02
 -0.24396E+00  0.19202E-01  0.16500E-01
 -0.24396E+00  0.19202E-01  0.33500E-01
 -0.24396E+00  0.19202E-01  0.46528E-01
 -0.23255E+00  0.19202E-01  0.34716E-02
 -0.23255E+00  0.19202E-01  0.16500E-01
 -0.23255E+00  0.19202E-01  0.33500E-01
 -0.23255E+00  0.19202E-01  0.46528E-01
 -0.22381E+00  0.19202E-01  0.34716E-02
 -0.22381E+00  0.19202E-01  0.16500E-01
 -0.22381E+00  0.19202E-01  0.33500E-01
 -0.22381E+00  0.19202E-01  0.46528E-01
 -0.24396E+00  0.15705E-01  0.34716E-02
 -0.24396E+00  0.15705E-01  0.16500E-01
 -0.24396E+00  0.15705E-01  0.33500E-01
 -0.24396E+00  0.15705E-01  0.46528E-01
 -0.23255E+00  0.15705E-01  0.34716E-02
 -0.23255E+00  0.15705E-01  0.16500E-01
 -0.23255E+00  0.15705E-01  0.33500E-01
 -0.23255E+00  0.15705E-01  0.46528E-01
 -0.22381E+00  0.15705E-01  0.34716E-02
 -0.22381E+00  0.15705E-01  0.16500E-01
 -0.22381E+00  0.15705E-01  0.33500E-01
 -0.22381E+00  0.15705E-01  0.46528E-01
 -0.24396E+00  0.11141E-01  0.34716E-02
 -0.24396E+00  0.11141E-01  0.16500E-01
 -0.24396E+00  0.11141E-01  0.33500E-01
 -0.24396E+00  0.11141E-01  0.46528E-01
 -0.23255E+00  0.11141E-01  0.34716E-02
 -0.23255E+00  0.11141E-01  0.16500E-01
 -0.23255E+00  0.11141E-01  0.33500E-01
 -0.23255E+00  0.11141E-01  0.46528E-01
 -0.22381E+00  0.11141E-01  0.34716E-02
 -0.22381E+00  0.11141E-01  0.16500E-01
 -0.22381E+00  0.11141E-01  0.33500E-01
 -0.22381E+00  0.11141E-01  0.46528E-01
 -0.24396E+00  0.76434E-02  0.34716E-02
 -0.24396E+00  0.76434E-02  0.16500E-01
 -0.24396E+00  0.76434E-02  0.33500E-01
 -0.24396E+00  0.76434E-02  0.46528E-01
 -0.23255E+00  0.76434E-02  0.34716E-02
 -0.23255E+00  0.76434E-02  0.16500E-01
 -0.23255E+00  0.76434E-02  0.33500E-01
 -0.23255E+00  0.76434E-02  0.46528E-01
 -0.22381E+00  0.76434E-02  0.34716E-02
 -0.22381E+00  0.76434E-02  0.16500E-01
 -0.22381E+00  0.76434E-02  0.33500E-01
 -0.22381E+00  0.76434E-02  0.46528E-01
 -0.24396E+00  0.19202E-01  0.53472E-01
 -0.24396E+00  0.19202E-01  0.66500E-01
 -0.24396E+00  0.19202E-01  0.83500E-01
 -0.24396E+00  0.19202E-01  0.96528E-01
 -0.23255E+00  0.19202E-01  0.53472E-01
 -0.23255E+00  0.19202E-01  0.66500E-01
 -0.23255E+00  0.19202E-01  0.83500E-01
 -0.23255E+00  0.19202E-01  0.96528E-01
 -0.22381E+00  0.19202E-01  0.53472E-01
 -0.22381E+00  0.19202E-01  0.66500E-01
 -0.22381E+00  0.19202E-01  0.83500E-01
 -0.22381E+00  0.19202E-01  0.96528E-01
 -0.24396E+00  0.15705E-01  0.53472E-01
 -0.24396E+00  0.15705E-01  0.66500E-01
 -0.24396E+00  0.15705E-01  0.83500E-01
 -0.24396E+00  0.15705E-01  0.96528E-01
 -0.23255E+00  0.15705E-01  0.53472E-01
 -0.23255E+00  0.15705E-01  0.66500E-01
 -0.23255E+00  0.15705E-01  0.83500E-01
 -0.23255E+00  0.15705E-01  0.96528E-01
 -0.22381E+00  0.15705E-01  0.53472E-01
 -0.22381E+00  0.15705E-01  0.66500E-01
 -0.22381E+00  0.15705E-01  0.83500E-01
 -0.22381E+00  0.15705E-01  0.96528E-01
 -0.24396E+00  0.11141E-01  0.53472E-01
 -0.24396E+00  0.11141E-01  0.66500E-01
 -0.24396E+00  0.11141E-01  0.83500E-01
 -0.24396E+00  0.11141E-01  0.96528E-01
 -0.23255E+00  0.11141E-01  0.53472E-01
 -0.23255E+00  0.11141E-01  0.66500E-01
 -0.23255E+00  0.11141E-01  0.83500E-01
 -0.23255E+00  0.11141E-01  0.96528E-01
 -0.22381E+00  0.11141E-01  0.53472E-01
 -0.22381E+00  0.11141E-01  0.66500E-01
 -0.22381E+00  0.11141E-01  0.83500E-01
 -0.22381E+00  0.11141E-01  0.96528E-01
 -0.24396E+00  0.76434E-02  0.53472E-01
 -0.24396E+00  0.76434E-02  0.66500E-01
 -0.24396E+00  0.76434E-02  0.83500E-01
 -0.24396E+00  0.76434E-02  0.96528E-01
 -0.23255E+00  0.76434E-02  0.53472E-01
 -0.23255E+00  0.76434E-02  0.66500E-01
 -0.23255E+00  0.76434E-02  0.83500E-01
 -0.23255E+00  0.76434E-02  0.96528E-01
 -0.22381E+00  0.76434E-02  0.53472E-01
 -0.22381E+00  0.76434E-02  0.66500E-01
 -0.22381E+00  0.76434E-02  0.83500E-01
 -0.22381E+00  0.76434E-02  0.96528E-01
 -0.24396E+00  0.32625E-01  0.34716E-02
 -0.24396E+00  0.32625E-01  0.16500E-01
 -0.24396E+00  0.32625E-01  0.33500E-01
 -0.24396E+00  0.32625E-01  0.46528E-01
 -0.23255E+00  0.32625E-01  0.34716E-02
 -0.23255E+00  0.32625E-01  0.16500E-01
 -0.23255E+00  0.32625E-01  0.33500E-01
 -0.23255E+00  0.32625E-01  0.46528E-01
 -0.22381E+00  0.32625E-01  0.34716E-02
 -0.22381E+00  0.32625E-01  0.16500E-01
 -0.22381E+00  0.32625E-01  0.33500E-01
 -0.22381E+00  0.32625E-01  0.46528E-01
 -0.24396E+00  0.29127E-01  0.34716E-02
 -0.24396E+00  0.29127E-01  0.16500E-01
 -0.24396E+00  0.29127E-01  0.33500E-01
 -0.24396E+00  0.29127E-01  0.46528E-01
 -0.23255E+00  0.29127E-01  0.34716E-02
 -0.23255E+00  0.29127E-01  0.16500E-01
 -0.23255E+00  0.29127E-01  0.33500E-01
 -0.23255E+00  0.29127E-01  0.46528E-01
 -0.22381E+00  0.29127E-01  0.34716E-02
 -0.22381E+00  0.29127E-01  0.16500E-01
 -0.22381E+00  0.29127E-01  0.33500E-01
 -0.22381E+00  0.29127E-01  0.46528E-01
 -0.24396E+00  0.24564E-01  0.34716E-02
 -0.24396E+00  0.24564E-01  0.16500E-01
 -0.24396E+00  0.24564E-01  0.33500E-01
 -0.24396E+00  0.24564E-01  0.46528E-01
 -0.23255E+00  0.24564E-01  0.34716E-02
 -0.23255E+00  0.24564E-01  0.16500E-01
 -0.23255E+00  0.24564E-01  0.33500E-01
 -0.23255E+00  0.24564E-01  0.46528E-01
 -0.22381E+00  0.24564E-01  0.34716E-02
 -0.22381E+00  0.24564E-01  0.16500E-01
 -0.22381E+00  0.24564E-01  0.33500E-01
 -0.22381E+00  0.24564E-01  0.46528E-01
 -0.24396E+00  0.21066E-01  0.34716E-02
 -0.24396E+00  0.21066E-01  0.16500E-01
 -0.24396E+00  0.21066E-01  0.33500E-01
 -0.24396E+00  0.21066E-01  0.46528E-01
 -0.23255E+00  0.21066E-01  0.34716E-02
 -0.23255E+00  0.21066E-01  0.16500E-01
 -0.23255E+00  0.21066E-01  0.33500E-01
 -0.23255E+00  0.21066E-01  0.46528E-01
 -0.22381E+00  0.21066E-01  0.34716E-02
 -0.22381E+00  0.21066E-01  0.16500E-01
 -0.22381E+00  0.21066E-01  0.33500E-01
 -0.22381E+00  0.21066E-01  0.46528E-01
 -0.24396E+00  0.32625E-01  0.53472E-01
 -0.24396E+00  0.32625E-01  0.66500E-01
 -0.24396E+00  0.32625E-01  0.83500E-01
 -0.24396E+00  0.32625E-01  0.96528E-01
 -0.23255E+00  0.32625E-01  0.53472E-01
 -0.23255E+00  0.32625E-01  0.66500E-01
 -0.23255E+00  0.32625E-01  0.83500E-01
 -0.23255E+00  0.32625E-01  0.96528E-01
 -0.22381E+00  0.32625E-01  0.53472E-01
 -0.22381E+00  0.32625E-01  0.66500E-01
 -0.22381E+00  0.32625E-01  0.83500E-01
 -0.22381E+00  0.32625E-01  0.96528E-01
 -0.24396E+00  0.29127E-01  0.53472E-01
 -0.24396E+00  0.29127E-01  0.66500E-01
 -0.24396E+00  0.29127E-01  0.83500E-01
 -0.24396E+00  0.29127E-01  0.96528E-01
 -0.23255E+00  0.29127E-01  0.53472E-01
 -0.23255E+00  0.29127E-01  0.66500E-01
 -0.23255E+00  0.29127E-01  0.83500E-01
 -0.23255E+00  0.29127E-01  0.96528E-01
 -0.22381E+00  0.29127E-01  0.53472E-01
 -0.22381E+00  0.29127E-01  0.66500E-01
 -0.22381E+00  0.29127E-01  0.83500E-01
 -0.22381E+00  0.29127E-01  0.96528E-01
 -0.24396E+00  0.24564E-01  0.53472E-01
 -0.24396E+00  0.24564E-01  0.66500E-01
 -0.24396E+00  0.24564E-01  0.83500E-01
 -0.24396E+00  0.24564E-01  0.96528E-01
 -0.23255E+00  0.24564E-01  0.53472E-01
 -0.23255E+00  0.24564E-01  0.66500E-01
 -0.23255E+00  0.24564E-01  0.83500E-01
 -0.23255E+00  0.24564E-01  0.96528E-01
 -0.22381E+00  0.24564E-01  0.53472E-01
 -0.22381E+00  0.24564E-01  0.66500E-01
 -0.22381E+00  0.24564E-01  0.83500E-01
 -0.22381E+00  0.24564E-01  0.96528E-01
 -0.24396E+00  0.21066E-01  0.53472E-01
 -0.24396E+00  0.21066E-01  0.66500E-01
 -0.24396E+00  0.21066E-01  0.83500E-01
 -0.24396E+00  0.21066E-01  0.96528E-01
 -0.23255E+00  0.21066E-01  0.53472E-01
 -0.23255E+00  0.21066E-01  0.66500E-01
 -0.23255E+00  0.21066E-01  0.83500E-01
 -0.23255E+00  0.21066E-01  0.96528E-01
 -0.22381E+00  0.21066E-01  0.53472E-01
 -0.22381E+00  0.21066E-01  0.66500E-01
 -0.22381E+00  0.21066E-01  0.83500E-01
 -0.22381E+00  0.21066E-01  0.96528E-01
 -0.24396E+00  0.46048E-01  0.34716E-02
 -0.24396E+00  0.46048E-01  0.16500E-01
 -0.24396E+00  0.46048E-01  0.33500E-01
 -0.24396E+00  0.46048E-01  0.46528E-01
 -0.23255E+00  0.46048E-01  0.34716E-02
 -0.23255E+00  0.46048E-01  0.16500E-01
 -0.23255E+00  0.46048E-01  0.33500E-01
 -0.23255E+00  0.46048E-01  0.46528E-01
 -0.22381E+00  0.46048E-01  0.34716E-02
 -0.22381E+00  0.46048E-01  0.16500E-01
 -0.22381E+00  0.46048E-01  0.33500E-01
 -0.22381E+00  0.46048E-01  0.46528E-01
 -0.24396E+00  0.42550E-01  0.34716E-02
 -0.24396E+00  0.42550E-01  0.16500E-01
 -0.24396E+00  0.42550E-01  0.33500E-01
 -0.24396E+00  0.42550E-01  0.46528E-01
 -0.23255E+00  0.42550E-01  0.34716E-02
 -0.23255E+00  0.42550E-01  0.16500E-01
 -0.23255E+00  0.42550E-01  0.33500E-01
 -0.23255E+00  0.42550E-01  0.46528E-01
 -0.22381E+00  0.42550E-01  0.34716E-02
 -0.22381E+00  0.42550E-01  0.16500E-01
 -0.22381E+00  0.42550E-01  0.33500E-01
 -0.22381E+00  0.42550E-01  0.46528E-01
 -0.24396E+00  0.37987E-01  0.34716E-02
 -0.24396E+00  0.37987E-01  0.16500E-01
 -0.24396E+00  0.37987E-01  0.33500E-01
 -0.24396E+00  0.37987E-01  0.46528E-01
 -0.23255E+00  0.37987E-01  0.34716E-02
 -0.23255E+00  0.37987E-01  0.16500E-01
 -0.23255E+00  0.37987E-01  0.33500E-01
 -0.23255E+00  0.37987E-01  0.46528E-01
 -0.22381E+00  0.37987E-01  0.34716E-02
 -0.22381E+00  0.37987E-01  0.16500E-01
 -0.22381E+00  0.37987E-01  0.33500E-01
 -0.22381E+00  0.37987E-01  0.46528E-01
 -0.24396E+00  0.34489E-01  0.34716E-02
 -0.24396E+00  0.34489E-01  0.16500E-01
 -0.24396E+00  0.34489E-01  0.33500E-01
 -0.24396E+00  0.34489E-01  0.46528E-01
 -0.23255E+00  0.34489E-01  0.34716E-02
 -0.23255E+00  0.34489E-01  0.16500E-01
 -0.23255E+00  0.34489E-01  0.33500E-01
 -0.23255E+00  0.34489E-01  0.46528E-01
 -0.22381E+00  0.34489E-01  0.34716E-02
 -0.22381E+00  0.34489E-01  0.16500E-01
 -0.22381E+00  0.34489E-01  0.33500E-01
 -0.22381E+00  0.34489E-01  0.46528E-01
 -0.24396E+00  0.46048E-01  0.53472E-01
 -0.24396E+00  0.46048E-01  0.66500E-01
 -0.24396E+00  0.46048E-01  0.83500E-01
 -0.24396E+00  0.46048E-01  0.96528E-01
 -0.23255E+00  0.46048E-01  0.53472E-01
 -0.23255E+00  0.46048E-01  0.66500E-01
 -0.23255E+00  0.46048E-01  0.83500E-01
 -0.23255E+00  0.46048E-01  0.96528E-01
 -0.22381E+00  0.46048E-01  0.53472E-01
 -0.22381E+00  0.46048E-01  0.66500E-01
 -0.22381E+00  0.46048E-01  0.83500E-01
 -0.22381E+00  0.46048E-01  0.96528E-01
 -0.24396E+00  0.42550E-01  0.53472E-01
 -0.24396E+00  0.42550E-01  0.66500E-01
 -0.24396E+00  0.42550E-01  0.83500E-01
 -0.24396E+00  0.42550E-01  0.96528E-01
 -0.23255E+00  0.42550E-01  0.53472E-01
 -0.23255E+00  0.42550E-01  0.66500E-01
 -0.23255E+00  0.42550E-01  0.83500E-01
 -0.23255E+00  0.42550E-01  0.96528E-01
 -0.22381E+00  0.42550E-01  0.53472E-01
 -0.22381E+00  0.42550E-01  0.66500E-01
 -0.22381E+00  0.42550E-01  0.83500E-01
 -0.22381E+00  0.42550E-01  0.96528E-01
 -0.24396E+00  0.37987E-01  0.53472E-01
 -0.24396E+00  0.37987E-01  0.66500E-01
 -0.24396E+00  0.37987E-01  0.83500E-01
 -0.24396E+00  0.37987E-01  0.96528E-01
 -0.23255E+00  0.37987E-01  0.53472E-01
 -0.23255E+00  0.37987E-01  0.66500E-01
 -0.23255E+00  0.37987E-01  0.83500E-01
 -0.23255E+00  0.37987E-01  0.96528E-01
 -0.22381E+00  0.37987E-01  0.53472E-01
 -0.22381E+00  0.37987E-01  0.66500E-01
 -0.22381E+00  0.37987E-01  0.83500E-01
 -0.22381E+00  0.37987E-01  0.96528E-01
 -0.24396E+00  0.34489E-01  0.53472E-01
 -0.24396E+00  0.34489E-01  0.66500E-01
 -0.24396E+00  0.34489E-01  0.83500E-01
 -0.24396E+00  0.34489E-01  0.96528E-01
 -0.23255E+00  0.34489E-01  0.53472E-01
 -0.23255E+00  0.34489E-01  0.66500E-01
 -0.23255E+00  0.34489E-01  0.83500E-01
 -0.23255E+00  0.34489E-01  0.96528E-01
 -0.22381E+00  0.34489E-01  0.53472E-01
 -0.22381E+00  0.34489E-01  0.66500E-01
 -0.22381E+00  0.34489E-01  0.83500E-01
 -0.22381E+00  0.34489E-01  0.96528E-01
 -0.24396E+00  0.59471E-01  0.34716E-02
 -0.24396E+00  0.59471E-01  0.16500E-01
 -0.24396E+00  0.59471E-01  0.33500E-01
 -0.24396E+00  0.59471E-01  0.46528E-01
 -0.23255E+00  0.59471E-01  0.34716E-02
 -0.23255E+00  0.59471E-01  0.16500E-01
 -0.23255E+00  0.59471E-01  0.33500E-01
 -0.23255E+00  0.59471E-01  0.46528E-01
 -0.22381E+00  0.59471E-01  0.34716E-02
 -0.22381E+00  0.59471E-01  0.16500E-01
 -0.22381E+00  0.59471E-01  0.33500E-01
 -0.22381E+00  0.59471E-01  0.46528E-01
 -0.24396E+00  0.55973E-01  0.34716E-02
 -0.24396E+00  0.55973E-01  0.16500E-01
 -0.24396E+00  0.55973E-01  0.33500E-01
 -0.24396E+00  0.55973E-01  0.46528E-01
 -0.23255E+00  0.55973E-01  0.34716E-02
 -0.23255E+00  0.55973E-01  0.16500E-01
 -0.23255E+00  0.55973E-01  0.33500E-01
 -0.23255E+00  0.55973E-01  0.46528E-01
 -0.22381E+00  0.55973E-01  0.34716E-02
 -0.22381E+00  0.55973E-01  0.16500E-01
 -0.22381E+00  0.55973E-01  0.33500E-01
 -0.22381E+00  0.55973E-01  0.46528E-01
 -0.24396E+00  0.51410E-01  0.34716E-02
 -0.24396E+00  0.51410E-01  0.16500E-01
 -0.24396E+00  0.51410E-01  0.33500E-01
 -0.24396E+00  0.51410E-01  0.46528E-01
 -0.23255E+00  0.51410E-01  0.34716E-02
 -0.23255E+00  0.51410E-01  0.16500E-01
 -0.23255E+00  0.51410E-01  0.33500E-01
 -0.23255E+00  0.51410E-01  0.46528E-01
 -0.22381E+00  0.51410E-01  0.34716E-02
 -0.22381E+00  0.51410E-01  0.16500E-01
 -0.22381E+00  0.51410E-01  0.33500E-01
 -0.22381E+00  0.51410E-01  0.46528E-01
 -0.24396E+00  0.47912E-01  0.34716E-02
 -0.24396E+00  0.47912E-01  0.16500E-01
 -0.24396E+00  0.47912E-01  0.33500E-01
 -0.24396E+00  0.47912E-01  0.46528E-01
 -0.23255E+00  0.47912E-01  0.34716E-02
 -0.23255E+00  0.47912E-01  0.16500E-01
 -0.23255E+00  0.47912E-01  0.33500E-01
 -0.23255E+00  0.47912E-01  0.46528E-01
 -0.22381E+00  0.47912E-01  0.34716E-02
 -0.22381E+00  0.47912E-01  0.16500E-01
 -0.22381E+00  0.47912E-01  0.33500E-01
 -0.22381E+00  0.47912E-01  0.46528E-01
 -0.24396E+00  0.59471E-01  0.53472E-01
 -0.24396E+00  0.59471E-01  0.66500E-01
 -0.24396E+00  0.59471E-01  0.83500E-01
 -0.24396E+00  0.59471E-01  0.96528E-01
 -0.23255E+00  0.59471E-01  0.53472E-01
 -0.23255E+00  0.59471E-01  0.66500E-01
 -0.23255E+00  0.59471E-01  0.83500E-01
 -0.23255E+00  0.59471E-01  0.96528E-01
 -0.22381E+00  0.59471E-01  0.53472E-01
 -0.22381E+00  0.59471E-01  0.66500E-01
 -0.22381E+00  0.59471E-01  0.83500E-01
 -0.22381E+00  0.59471E-01  0.96528E-01
 -0.24396E+00  0.55973E-01  0.53472E-01
 -0.24396E+00  0.55973E-01  0.66500E-01
 -0.24396E+00  0.55973E-01  0.83500E-01
 -0.24396E+00  0.55973E-01  0.96528E-01
 -0.23255E+00  0.55973E-01  0.53472E-01
 -0.23255E+00  0.55973E-01  0.66500E-01
 -0.23255E+00  0.55973E-01  0.83500E-01
 -0.23255E+00  0.55973E-01  0.96528E-01
 -0.22381E+00  0.55973E-01  0.53472E-01
 -0.22381E+00  0.55973E-01  0.66500E-01
 -0.22381E+00  0.55973E-01  0.83500E-01
 -0.22381E+00  0.55973E-01  0.96528E-01
 -0.24396E+00  0.51410E-01  0.53472E-01
 -0.24396E+00  0.51410E-01  0.66500E-01
 -0.24396E+00  0.51410E-01  0.83500E-01
 -0.24396E+00  0.51410E-01  0.96528E-01
 -0.23255E+00  0.51410E-01  0.53472E-01
 -0.23255E+00  0.51410E-01  0.66500E-01
 -0.23255E+00  0.51410E-01  0.83500E-01
 -0.23255E+00  0.51410E-01  0.96528E-01
 -0.22381E+00  0.51410E-01  0.53472E-01
 -0.22381E+00  0.51410E-01  0.66500E-01
 -0.22381E+00  0.51410E-01  0.83500E-01
 -0.22381E+00  0.51410E-01  0.96528E-01
 -0.24396E+00  0.47912E-01  0.53472E-01
 -0.24396E+00  0.47912E-01  0.66500E-01
 -0.24396E+00  0.47912E-01  0.83500E-01
 -0.24396E+00  0.47912E-01  0.96528E-01
 -0.23255E+00  0.47912E-01  0.53472E-01
 -0.23255E+00  0.47912E-01  0.66500E-01
 -0.23255E+00  0.47912E-01  0.83500E-01
 -0.23255E+00  0.47912E-01  0.96528E-01
 -0.22381E+00  0.47912E-01  0.53472E-01
 -0.22381E+00  0.47912E-01  0.66500E-01
 -0.22381E+00  0.47912E-01  0.83500E-01
 -0.22381E+00  0.47912E-01  0.96528E-01
 -0.24396E+00  0.72894E-01  0.34716E-02
 -0.24396E+00  0.72894E-01  0.16500E-01
 -0.24396E+00  0.72894E-01  0.33500E-01
 -0.24396E+00  0.72894E-01  0.46528E-01
 -0.23255E+00  0.72894E-01  0.34716E-02
 -0.23255E+00  0.72894E-01  0.16500E-01
 -0.23255E+00  0.72894E-01  0.33500E-01
 -0.23255E+00  0.72894E-01  0.46528E-01
 -0.22381E+00  0.72894E-01  0.34716E-02
 -0.22381E+00  0.72894E-01  0.16500E-01
 -0.22381E+00  0.72894E-01  0.33500E-01
 -0.22381E+00  0.72894E-01  0.46528E-01
 -0.24396E+00  0.69396E-01  0.34716E-02
 -0.24396E+00  0.69396E-01  0.16500E-01
 -0.24396E+00  0.69396E-01  0.33500E-01
 -0.24396E+00  0.69396E-01  0.46528E-01
 -0.23255E+00  0.69396E-01  0.34716E-02
 -0.23255E+00  0.69396E-01  0.16500E-01
 -0.23255E+00  0.69396E-01  0.33500E-01
 -0.23255E+00  0.69396E-01  0.46528E-01
 -0.22381E+00  0.69396E-01  0.34716E-02
 -0.22381E+00  0.69396E-01  0.16500E-01
 -0.22381E+00  0.69396E-01  0.33500E-01
 -0.22381E+00  0.69396E-01  0.46528E-01
 -0.24396E+00  0.64832E-01  0.34716E-02
 -0.24396E+00  0.64832E-01  0.16500E-01
 -0.24396E+00  0.64832E-01  0.33500E-01
 -0.24396E+00  0.64832E-01  0.46528E-01
 -0.23255E+00  0.64832E-01  0.34716E-02
 -0.23255E+00  0.64832E-01  0.16500E-01
 -0.23255E+00  0.64832E-01  0.33500E-01
 -0.23255E+00  0.64832E-01  0.46528E-01
 -0.22381E+00  0.64832E-01  0.34716E-02
 -0.22381E+00  0.64832E-01  0.16500E-01
 -0.22381E+00  0.64832E-01  0.33500E-01
 -0.22381E+00  0.64832E-01  0.46528E-01
 -0.24396E+00  0.61335E-01  0.34716E-02
 -0.24396E+00  0.61335E-01  0.16500E-01
 -0.24396E+00  0.61335E-01  0.33500E-01
 -0.24396E+00  0.61335E-01  0.46528E-01
 -0.23255E+00  0.61335E-01  0.34716E-02
 -0.23255E+00  0.61335E-01  0.16500E-01
 -0.23255E+00  0.61335E-01  0.33500E-01
 -0.23255E+00  0.61335E-01  0.46528E-01
 -0.22381E+00  0.61335E-01  0.34716E-02
 -0.22381E+00  0.61335E-01  0.16500E-01
 -0.22381E+00  0.61335E-01  0.33500E-01
 -0.22381E+00  0.61335E-01  0.46528E-01
 -0.24396E+00  0.72894E-01  0.53472E-01
 -0.24396E+00  0.72894E-01  0.66500E-01
 -0.24396E+00  0.72894E-01  0.83500E-01
 -0.24396E+00  0.72894E-01  0.96528E-01
 -0.23255E+00  0.72894E-01  0.53472E-01
 -0.23255E+00  0.72894E-01  0.66500E-01
 -0.23255E+00  0.72894E-01  0.83500E-01
 -0.23255E+00  0.72894E-01  0.96528E-01
 -0.22381E+00  0.72894E-01  0.53472E-01
 -0.22381E+00  0.72894E-01  0.66500E-01
 -0.22381E+00  0.72894E-01  0.83500E-01
 -0.22381E+00  0.72894E-01  0.96528E-01
 -0.24396E+00  0.69396E-01  0.53472E-01
 -0.24396E+00  0.69396E-01  0.66500E-01
 -0.24396E+00  0.69396E-01  0.83500E-01
 -0.24396E+00  0.69396E-01  0.96528E-01
 -0.23255E+00  0.69396E-01  0.53472E-01
 -0.23255E+00  0.69396E-01  0.66500E-01
 -0.23255E+00  0.69396E-01  0.83500E-01
 -0.23255E+00  0.69396E-01  0.96528E-01
 -0.22381E+00  0.69396E-01  0.53472E-01
 -0.22381E+00  0.69396E-01  0.66500E-01
 -0.22381E+00  0.69396E-01  0.83500E-01
 -0.22381E+00  0.69396E-01  0.96528E-01
 -0.24396E+00  0.64832E-01  0.53472E-01
 -0.24396E+00  0.64832E-01  0.66500E-01
 -0.24396E+00  0.64832E-01  0.83500E-01
 -0.24396E+00  0.64832E-01  0.96528E-01
 -0.23255E+00  0.64832E-01  0.53472E-01
 -0.23255E+00  0.64832E-01  0.66500E-01
 -0.23255E+00  0.64832E-01  0.83500E-01
 -0.23255E+00  0.64832E-01  0.96528E-01
 -0.22381E+00  0.64832E-01  0.53472E-01
 -0.22381E+00  0.64832E-01  0.66500E-01
 -0.22381E+00  0.64832E-01  0.83500E-01
 -0.22381E+00  0.64832E-01  0.96528E-01
 -0.24396E+00  0.61335E-01  0.53472E-01
 -0.24396E+00  0.61335E-01  0.66500E-01
 -0.24396E+00  0.61335E-01  0.83500E-01
 -0.24396E+00  0.61335E-01  0.96528E-01
 -0.23255E+00  0.61335E-01  0.53472E-01
 -0.23255E+00  0.61335E-01  0.66500E-01
 -0.23255E+00  0.61335E-01  0.83500E-01
 -0.23255E+00  0.61335E-01  0.96528E-01
 -0.22381E+00  0.61335E-01  0.53472E-01
 -0.22381E+00  0.61335E-01  0.66500E-01
 -0.22381E+00  0.61335E-01  0.83500E-01
 -0.22381E+00  0.61335E-01  0.96528E-01
 -0.24396E+00  0.86316E-01  0.34716E-02
 -0.24396E+00  0.86316E-01  0.16500E-01
 -0.24396E+00  0.86316E-01  0.33500E-01
 -0.24396E+00  0.86316E-01  0.46528E-01
 -0.23255E+00  0.86316E-01  0.34716E-02
 -0.23255E+00  0.86316E-01  0.16500E-01
 -0.23255E+00  0.86316E-01  0.33500E-01
 -0.23255E+00  0.86316E-01  0.46528E-01
 -0.22381E+00  0.86316E-01  0.34716E-02
 -0.22381E+00  0.86316E-01  0.16500E-01
 -0.22381E+00  0.86316E-01  0.33500E-01
 -0.22381E+00  0.86316E-01  0.46528E-01
 -0.24396E+00  0.82819E-01  0.34716E-02
 -0.24396E+00  0.82819E-01  0.16500E-01
 -0.24396E+00  0.82819E-01  0.33500E-01
 -0.24396E+00  0.82819E-01  0.46528E-01
 -0.23255E+00  0.82819E-01  0.34716E-02
 -0.23255E+00  0.82819E-01  0.16500E-01
 -0.23255E+00  0.82819E-01  0.33500E-01
 -0.23255E+00  0.82819E-01  0.46528E-01
 -0.22381E+00  0.82819E-01  0.34716E-02
 -0.22381E+00  0.82819E-01  0.16500E-01
 -0.22381E+00  0.82819E-01  0.33500E-01
 -0.22381E+00  0.82819E-01  0.46528E-01
 -0.24396E+00  0.78255E-01  0.34716E-02
 -0.24396E+00  0.78255E-01  0.16500E-01
 -0.24396E+00  0.78255E-01  0.33500E-01