TITLE = "Points"
VARIABLES = "x","y","z"
ZONE I=112,J=2,K=1, DATAPACKING=POINT
  0.23487E-02  0.51410E-01  0.34716E-02
  0.23487E-02  0.51410E-01  0.16500E-01
  0.23487E-02  0.51410E-01  0.33500E-01
  0.23487E-02  0.51410E-01  0.46528E-01
  0.23487E-02  0.51410E-01  0.53472E-01
  0.23487E-02  0.51410E-01  0.66500E-01
  0.23487E-02  0.51410E-01  0.83500E-01
  0.23487E-02  0.51410E-01  0.96528E-01
  0.11093E-01  0.78255E-01  0.34716E-02
  0.11093E-01  0.78255E-01  0.16500E-01
  0.11093E-01  0.78255E-01  0.33500E-01
  0.11093E-01  0.78255E-01  0.46528E-01
  0.11093E-01  0.78255E-01  0.53472E-01
  0.11093E-01  0.78255E-01  0.66500E-01
  0.11093E-01  0.78255E-01  0.83500E-01
  0.11093E-01  0.78255E-01  0.96528E-01
  0.35906E-01  0.29127E-01  0.34716E-02
  0.35906E-01  0.29127E-01  0.16500E-01
  0.35906E-01  0.29127E-01  0.33500E-01
  0.35906E-01  0.29127E-01  0.46528E-01
  0.35906E-01  0.29127E-01  0.53472E-01
  0.35906E-01  0.29127E-01  0.66500E-01
  0.35906E-01  0.29127E-01  0.83500E-01
  0.35906E-01  0.29127E-01  0.96528E-01
  0.24497E-01  0.86316E-01  0.34716E-02
  0.24497E-01  0.86316E-01  0.16500E-01
  0.24497E-01  0.86316E-01  0.33500E-01
  0.24497E-01  0.86316E-01  0.46528E-01
  0.24497E-01  0.86316E-01  0.53472E-01
  0.24497E-01  0.86316E-01  0.66500E-01
  0.24497E-01  0.86316E-01  0.83500E-01
  0.24497E-01  0.86316E-01  0.96528E-01
  0.69463E-01  0.19202E-01  0.34716E-02
  0.69463E-01  0.19202E-01  0.16500E-01
  0.69463E-01  0.19202E-01  0.33500E-01
  0.69463E-01  0.19202E-01  0.46528E-01
  0.69463E-01  0.19202E-01  0.53472E-01
  0.69463E-01  0.19202E-01  0.66500E-01
  0.69463E-01  0.19202E-01  0.83500E-01
  0.69463E-01  0.19202E-01  0.96528E-01
  0.49310E-01  0.24564E-01  0.34716E-02
  0.49310E-01  0.24564E-01  0.16500E-01
  0.49310E-01  0.24564E-01  0.33500E-01
  0.49310E-01  0.24564E-01  0.46528E-01
  0.49310E-01  0.24564E-01  0.53472E-01
  0.49310E-01  0.24564E-01  0.66500E-01
  0.49310E-01  0.24564E-01  0.83500E-01
  0.49310E-01  0.24564E-01  0.96528E-01
  0.11176E+00  0.11141E-01  0.34716E-02
  0.11176E+00  0.11141E-01  0.16500E-01
  0.11176E+00  0.11141E-01  0.33500E-01
  0.11176E+00  0.11141E-01  0.46528E-01
  0.11176E+00  0.11141E-01  0.53472E-01
  0.11176E+00  0.11141E-01  0.66500E-01
  0.11176E+00  0.11141E-01  0.83500E-01
  0.11176E+00  0.11141E-01  0.96528E-01
  0.14532E+00  0.11316E+00  0.34716E-02
  0.14532E+00  0.11316E+00  0.16500E-01
  0.14532E+00  0.11316E+00  0.33500E-01
  0.14532E+00  0.11316E+00  0.46528E-01
  0.11642E+00  0.10966E+00  0.34716E-02
  0.11642E+00  0.10966E+00  0.16500E-01
  0.11642E+00  0.10966E+00  0.33500E-01
  0.11642E+00  0.10966E+00  0.46528E-01
  0.14532E+00  0.11316E+00  0.53472E-01
  0.14532E+00  0.11316E+00  0.66500E-01
  0.14532E+00  0.11316E+00  0.83500E-01
  0.14532E+00  0.11316E+00  0.96528E-01
  0.11642E+00  0.10966E+00  0.53472E-01
  0.11642E+00  0.10966E+00  0.66500E-01
  0.11642E+00  0.10966E+00  0.83500E-01
  0.11642E+00  0.10966E+00  0.96528E-01
  0.20369E+00  0.22818E-02  0.34716E-02
  0.20369E+00  0.22818E-02  0.16500E-01
  0.20369E+00  0.22818E-02  0.33500E-01
  0.20369E+00  0.22818E-02  0.46528E-01
  0.20369E+00  0.22818E-02  0.53472E-01
  0.20369E+00  0.22818E-02  0.66500E-01
  0.20369E+00  0.22818E-02  0.83500E-01
  0.20369E+00  0.22818E-02  0.96528E-01
  0.21710E+00  0.11852E+00  0.34716E-02
  0.21710E+00  0.11852E+00  0.16500E-01
  0.21710E+00  0.11852E+00  0.33500E-01
  0.21710E+00  0.11852E+00  0.46528E-01
  0.21710E+00  0.11852E+00  0.53472E-01
  0.21710E+00  0.11852E+00  0.66500E-01
  0.21710E+00  0.11852E+00  0.83500E-01
  0.21710E+00  0.11852E+00  0.96528E-01
  0.41378E+00  0.22818E-02  0.34716E-02
  0.41378E+00  0.22818E-02  0.16500E-01
  0.41378E+00  0.22818E-02  0.33500E-01
  0.41378E+00  0.22818E-02  0.46528E-01
  0.41378E+00  0.22818E-02  0.53472E-01
  0.41378E+00  0.22818E-02  0.66500E-01
  0.41378E+00  0.22818E-02  0.83500E-01
  0.41378E+00  0.22818E-02  0.96528E-01
  0.39362E+00  0.11852E+00  0.34716E-02
  0.39362E+00  0.11852E+00  0.16500E-01
  0.39362E+00  0.11852E+00  0.33500E-01
  0.39362E+00  0.11852E+00  0.46528E-01
  0.39362E+00  0.11852E+00  0.53472E-01
  0.39362E+00  0.11852E+00  0.66500E-01
  0.39362E+00  0.11852E+00  0.83500E-01
  0.39362E+00  0.11852E+00  0.96528E-01
  0.48089E+00  0.57794E-02  0.34716E-02
  0.48089E+00  0.57794E-02  0.16500E-01
  0.48089E+00  0.57794E-02  0.33500E-01
  0.48089E+00  0.57794E-02  0.46528E-01
  0.48089E+00  0.57794E-02  0.53472E-01
  0.48089E+00  0.57794E-02  0.66500E-01
  0.48089E+00  0.57794E-02  0.83500E-01
  0.48089E+00  0.57794E-02  0.96528E-01
  0.47215E+00  0.11503E+00  0.34716E-02
  0.47215E+00  0.11503E+00  0.16500E-01
  0.47215E+00  0.11503E+00  0.33500E-01
  0.47215E+00  0.11503E+00  0.46528E-01
  0.47215E+00  0.11503E+00  0.53472E-01
  0.47215E+00  0.11503E+00  0.66500E-01
  0.47215E+00  0.11503E+00  0.83500E-01
  0.47215E+00  0.11503E+00  0.96528E-01
  0.51445E+00  0.76434E-02  0.34716E-02
  0.51445E+00  0.76434E-02  0.16500E-01
  0.51445E+00  0.76434E-02  0.33500E-01
  0.51445E+00  0.76434E-02  0.46528E-01
  0.51445E+00  0.76434E-02  0.53472E-01
  0.51445E+00  0.76434E-02  0.66500E-01
  0.51445E+00  0.76434E-02  0.83500E-01
  0.51445E+00  0.76434E-02  0.96528E-01
  0.56141E+00  0.11141E-01  0.34716E-02
  0.56141E+00  0.11141E-01  0.16500E-01
  0.56141E+00  0.11141E-01  0.33500E-01
  0.56141E+00  0.11141E-01  0.46528E-01
  0.56141E+00  0.11141E-01  0.53472E-01
  0.56141E+00  0.11141E-01  0.66500E-01
  0.56141E+00  0.11141E-01  0.83500E-01
  0.56141E+00  0.11141E-01  0.96528E-01
  0.55267E+00  0.10966E+00  0.34716E-02
  0.55267E+00  0.10966E+00  0.16500E-01
  0.55267E+00  0.10966E+00  0.33500E-01
  0.55267E+00  0.10966E+00  0.46528E-01
  0.55267E+00  0.10966E+00  0.53472E-01
  0.55267E+00  0.10966E+00  0.66500E-01
  0.55267E+00  0.10966E+00  0.83500E-01
  0.55267E+00  0.10966E+00  0.96528E-01
  0.61978E+00  0.15705E-01  0.34716E-02
  0.61978E+00  0.15705E-01  0.16500E-01
  0.61978E+00  0.15705E-01  0.33500E-01
  0.61978E+00  0.15705E-01  0.46528E-01
  0.61978E+00  0.15705E-01  0.53472E-01
  0.61978E+00  0.15705E-01  0.66500E-01
  0.61978E+00  0.15705E-01  0.83500E-01
  0.61978E+00  0.15705E-01  0.96528E-01
  0.64868E+00  0.10160E+00  0.34716E-02
  0.64868E+00  0.10160E+00  0.16500E-01
  0.64868E+00  0.10160E+00  0.33500E-01
  0.64868E+00  0.10160E+00  0.46528E-01
  0.64868E+00  0.10160E+00  0.53472E-01
  0.64868E+00  0.10160E+00  0.66500E-01
  0.64868E+00  0.10160E+00  0.83500E-01
  0.64868E+00  0.10160E+00  0.96528E-01
  0.71579E+00  0.24564E-01  0.34716E-02
  0.71579E+00  0.24564E-01  0.16500E-01
  0.71579E+00  0.24564E-01  0.33500E-01
  0.71579E+00  0.24564E-01  0.46528E-01
  0.71579E+00  0.24564E-01  0.53472E-01
  0.71579E+00  0.24564E-01  0.66500E-01
  0.71579E+00  0.24564E-01  0.83500E-01
  0.71579E+00  0.24564E-01  0.96528E-01
  0.70705E+00  0.96241E-01  0.34716E-02
  0.70705E+00  0.96241E-01  0.16500E-01
  0.70705E+00  0.96241E-01  0.33500E-01
  0.70705E+00  0.96241E-01  0.46528E-01
  0.70705E+00  0.96241E-01  0.53472E-01
  0.70705E+00  0.96241E-01  0.66500E-01
  0.70705E+00  0.96241E-01  0.83500E-01
  0.70705E+00  0.96241E-01  0.96528E-01
  0.75401E+00  0.91678E-01  0.34716E-02
  0.75401E+00  0.91678E-01  0.16500E-01
  0.75401E+00  0.91678E-01  0.33500E-01
  0.75401E+00  0.91678E-01  0.46528E-01
  0.78290E+00  0.88180E-01  0.34716E-02
  0.78290E+00  0.88180E-01  0.16500E-01
  0.78290E+00  0.88180E-01  0.33500E-01
  0.78290E+00  0.88180E-01  0.46528E-01
  0.75401E+00  0.91678E-01  0.53472E-01
  0.75401E+00  0.91678E-01  0.66500E-01
  0.75401E+00  0.91678E-01  0.83500E-01
  0.75401E+00  0.91678E-01  0.96528E-01
  0.78290E+00  0.88180E-01  0.53472E-01
  0.78290E+00  0.88180E-01  0.66500E-01
  0.78290E+00  0.88180E-01  0.83500E-01
  0.78290E+00  0.88180E-01  0.96528E-01
  0.80772E+00  0.34489E-01  0.34716E-02
  0.80772E+00  0.34489E-01  0.16500E-01
  0.80772E+00  0.34489E-01  0.33500E-01
  0.80772E+00  0.34489E-01  0.46528E-01
  0.80772E+00  0.34489E-01  0.53472E-01
  0.80772E+00  0.34489E-01  0.66500E-01
  0.80772E+00  0.34489E-01  0.83500E-01
  0.80772E+00  0.34489E-01  0.96528E-01
  0.92179E+00  0.47912E-01  0.34716E-02
  0.92179E+00  0.47912E-01  0.16500E-01
  0.92179E+00  0.47912E-01  0.33500E-01
  0.92179E+00  0.47912E-01  0.46528E-01
  0.92179E+00  0.47912E-01  0.53472E-01
  0.92179E+00  0.47912E-01  0.66500E-01
  0.92179E+00  0.47912E-01  0.83500E-01
  0.92179E+00  0.47912E-01  0.96528E-01
  0.94195E+00  0.69396E-01  0.34716E-02
  0.94195E+00  0.69396E-01  0.16500E-01
  0.94195E+00  0.69396E-01  0.33500E-01
  0.94195E+00  0.69396E-01  0.46528E-01
  0.94195E+00  0.69396E-01  0.53472E-01
  0.94195E+00  0.69396E-01  0.66500E-01
  0.94195E+00  0.69396E-01  0.83500E-01
  0.94195E+00  0.69396E-01  0.96528E-01
  0.97550E+00  0.64832E-01  0.34716E-02
  0.97550E+00  0.64832E-01  0.16500E-01
  0.97550E+00  0.64832E-01  0.33500E-01
  0.97550E+00  0.64832E-01  0.46528E-01
  0.97550E+00  0.64832E-01  0.53472E-01
  0.97550E+00  0.64832E-01  0.66500E-01
  0.97550E+00  0.64832E-01  0.83500E-01
  0.97550E+00  0.64832E-01  0.96528E-01
