TITLE = "Points"
VARIABLES = "x","y","z"
ZONE I=112,J=2,K=1, DATAPACKING=POINT
  0.20624E-02  0.51246E-01  0.34716E-02
  0.20624E-02  0.51246E-01  0.16500E-01
  0.20624E-02  0.51246E-01  0.33500E-01
  0.20624E-02  0.51246E-01  0.46528E-01
  0.20624E-02  0.51246E-01  0.53472E-01
  0.20624E-02  0.51246E-01  0.66500E-01
  0.20624E-02  0.51246E-01  0.83500E-01
  0.20624E-02  0.51246E-01  0.96528E-01
  0.10994E-01  0.78385E-01  0.34716E-02
  0.10994E-01  0.78385E-01  0.16500E-01
  0.10994E-01  0.78385E-01  0.33500E-01
  0.10994E-01  0.78385E-01  0.46528E-01
  0.10994E-01  0.78385E-01  0.53472E-01
  0.10994E-01  0.78385E-01  0.66500E-01
  0.10994E-01  0.78385E-01  0.83500E-01
  0.10994E-01  0.78385E-01  0.96528E-01
  0.35806E-01  0.28874E-01  0.34716E-02
  0.35806E-01  0.28874E-01  0.16500E-01
  0.35806E-01  0.28874E-01  0.33500E-01
  0.35806E-01  0.28874E-01  0.46528E-01
  0.35806E-01  0.28874E-01  0.53472E-01
  0.35806E-01  0.28874E-01  0.66500E-01
  0.35806E-01  0.28874E-01  0.83500E-01
  0.35806E-01  0.28874E-01  0.96528E-01
  0.24452E-01  0.86411E-01  0.34716E-02
  0.24452E-01  0.86411E-01  0.16500E-01
  0.24452E-01  0.86411E-01  0.33500E-01
  0.24452E-01  0.86411E-01  0.46528E-01
  0.24452E-01  0.86411E-01  0.53472E-01
  0.24452E-01  0.86411E-01  0.66500E-01
  0.24452E-01  0.86411E-01  0.83500E-01
  0.24452E-01  0.86411E-01  0.96528E-01
  0.69390E-01  0.18882E-01  0.34716E-02
  0.69390E-01  0.18882E-01  0.16500E-01
  0.69390E-01  0.18882E-01  0.33500E-01
  0.69390E-01  0.18882E-01  0.46528E-01
  0.69390E-01  0.18882E-01  0.53472E-01
  0.69390E-01  0.18882E-01  0.66500E-01
  0.69390E-01  0.18882E-01  0.83500E-01
  0.69390E-01  0.18882E-01  0.96528E-01
  0.49230E-01  0.24304E-01  0.34716E-02
  0.49230E-01  0.24304E-01  0.16500E-01
  0.49230E-01  0.24304E-01  0.33500E-01
  0.49230E-01  0.24304E-01  0.46528E-01
  0.49230E-01  0.24304E-01  0.53472E-01
  0.49230E-01  0.24304E-01  0.66500E-01
  0.49230E-01  0.24304E-01  0.83500E-01
  0.49230E-01  0.24304E-01  0.96528E-01
  0.11173E+00  0.10941E-01  0.34716E-02
  0.11173E+00  0.10941E-01  0.16500E-01
  0.11173E+00  0.10941E-01  0.33500E-01
  0.11173E+00  0.10941E-01  0.46528E-01
  0.11173E+00  0.10941E-01  0.53472E-01
  0.11173E+00  0.10941E-01  0.66500E-01
  0.11173E+00  0.10941E-01  0.83500E-01
  0.11173E+00  0.10941E-01  0.96528E-01
  0.14529E+00  0.11344E+00  0.34716E-02
  0.14529E+00  0.11344E+00  0.16500E-01
  0.14529E+00  0.11344E+00  0.33500E-01
  0.14529E+00  0.11344E+00  0.46528E-01
  0.11640E+00  0.10984E+00  0.34716E-02
  0.11640E+00  0.10984E+00  0.16500E-01
  0.11640E+00  0.10984E+00  0.33500E-01
  0.11640E+00  0.10984E+00  0.46528E-01
  0.14529E+00  0.11344E+00  0.53472E-01
  0.14529E+00  0.11344E+00  0.66500E-01
  0.14529E+00  0.11344E+00  0.83500E-01
  0.14529E+00  0.11344E+00  0.96528E-01
  0.11640E+00  0.10984E+00  0.53472E-01
  0.11640E+00  0.10984E+00  0.66500E-01
  0.11640E+00  0.10984E+00  0.83500E-01
  0.11640E+00  0.10984E+00  0.96528E-01
  0.20368E+00  0.20457E-02  0.34716E-02
  0.20368E+00  0.20457E-02  0.16500E-01
  0.20368E+00  0.20457E-02  0.33500E-01
  0.20368E+00  0.20457E-02  0.46528E-01
  0.20368E+00  0.20457E-02  0.53472E-01
  0.20368E+00  0.20457E-02  0.66500E-01
  0.20368E+00  0.20457E-02  0.83500E-01
  0.20368E+00  0.20457E-02  0.96528E-01
  0.21708E+00  0.11874E+00  0.34716E-02
  0.21708E+00  0.11874E+00  0.16500E-01
  0.21708E+00  0.11874E+00  0.33500E-01
  0.21708E+00  0.11874E+00  0.46528E-01
  0.21708E+00  0.11874E+00  0.53472E-01
  0.21708E+00  0.11874E+00  0.66500E-01
  0.21708E+00  0.11874E+00  0.83500E-01
  0.21708E+00  0.11874E+00  0.96528E-01
  0.41378E+00  0.21551E-02  0.34716E-02
  0.41378E+00  0.21551E-02  0.16500E-01
  0.41378E+00  0.21551E-02  0.33500E-01
  0.41378E+00  0.21551E-02  0.46528E-01
  0.41378E+00  0.21551E-02  0.53472E-01
  0.41378E+00  0.21551E-02  0.66500E-01
  0.41378E+00  0.21551E-02  0.83500E-01
  0.41378E+00  0.21551E-02  0.96528E-01
  0.39363E+00  0.11875E+00  0.34716E-02
  0.39363E+00  0.11875E+00  0.16500E-01
  0.39363E+00  0.11875E+00  0.33500E-01
  0.39363E+00  0.11875E+00  0.46528E-01
  0.39363E+00  0.11875E+00  0.53472E-01
  0.39363E+00  0.11875E+00  0.66500E-01
  0.39363E+00  0.11875E+00  0.83500E-01
  0.39363E+00  0.11875E+00  0.96528E-01
  0.48091E+00  0.55339E-02  0.34716E-02
  0.48091E+00  0.55339E-02  0.16500E-01
  0.48091E+00  0.55339E-02  0.33500E-01
  0.48091E+00  0.55339E-02  0.46528E-01
  0.48091E+00  0.55339E-02  0.53472E-01
  0.48091E+00  0.55339E-02  0.66500E-01
  0.48091E+00  0.55339E-02  0.83500E-01
  0.48091E+00  0.55339E-02  0.96528E-01
  0.47215E+00  0.11509E+00  0.34716E-02
  0.47215E+00  0.11509E+00  0.16500E-01
  0.47215E+00  0.11509E+00  0.33500E-01
  0.47215E+00  0.11509E+00  0.46528E-01
  0.47215E+00  0.11509E+00  0.53472E-01
  0.47215E+00  0.11509E+00  0.66500E-01
  0.47215E+00  0.11509E+00  0.83500E-01
  0.47215E+00  0.11509E+00  0.96528E-01
  0.51445E+00  0.76299E-02  0.34716E-02
  0.51445E+00  0.76299E-02  0.16500E-01
  0.51445E+00  0.76299E-02  0.33500E-01
  0.51445E+00  0.76299E-02  0.46528E-01
  0.51445E+00  0.76299E-02  0.53472E-01
  0.51445E+00  0.76299E-02  0.66500E-01
  0.51445E+00  0.76299E-02  0.83500E-01
  0.51445E+00  0.76299E-02  0.96528E-01
  0.56143E+00  0.10938E-01  0.34716E-02
  0.56143E+00  0.10938E-01  0.16500E-01
  0.56143E+00  0.10938E-01  0.33500E-01
  0.56143E+00  0.10938E-01  0.46528E-01
  0.56143E+00  0.10938E-01  0.53472E-01
  0.56143E+00  0.10938E-01  0.66500E-01
  0.56143E+00  0.10938E-01  0.83500E-01
  0.56143E+00  0.10938E-01  0.96528E-01
  0.55268E+00  0.10982E+00  0.34716E-02
  0.55268E+00  0.10982E+00  0.16500E-01
  0.55268E+00  0.10982E+00  0.33500E-01
  0.55268E+00  0.10982E+00  0.46528E-01
  0.55268E+00  0.10982E+00  0.53472E-01
  0.55268E+00  0.10982E+00  0.66500E-01
  0.55268E+00  0.10982E+00  0.83500E-01
  0.55268E+00  0.10982E+00  0.96528E-01
  0.61978E+00  0.15643E-01  0.34716E-02
  0.61978E+00  0.15643E-01  0.16500E-01
  0.61978E+00  0.15643E-01  0.33500E-01
  0.61978E+00  0.15643E-01  0.46528E-01
  0.61978E+00  0.15643E-01  0.53472E-01
  0.61978E+00  0.15643E-01  0.66500E-01
  0.61978E+00  0.15643E-01  0.83500E-01
  0.61978E+00  0.15643E-01  0.96528E-01
  0.64871E+00  0.10194E+00  0.34716E-02
  0.64871E+00  0.10194E+00  0.16500E-01
  0.64871E+00  0.10194E+00  0.33500E-01
  0.64871E+00  0.10194E+00  0.46528E-01
  0.64871E+00  0.10194E+00  0.53472E-01
  0.64871E+00  0.10194E+00  0.66500E-01
  0.64871E+00  0.10194E+00  0.83500E-01
  0.64871E+00  0.10194E+00  0.96528E-01
  0.71579E+00  0.24532E-01  0.34716E-02
  0.71579E+00  0.24532E-01  0.16500E-01
  0.71579E+00  0.24532E-01  0.33500E-01
  0.71579E+00  0.24532E-01  0.46528E-01
  0.71579E+00  0.24532E-01  0.53472E-01
  0.71579E+00  0.24532E-01  0.66500E-01
  0.71579E+00  0.24532E-01  0.83500E-01
  0.71579E+00  0.24532E-01  0.96528E-01
  0.70707E+00  0.96444E-01  0.34716E-02
  0.70707E+00  0.96444E-01  0.16500E-01
  0.70707E+00  0.96444E-01  0.33500E-01
  0.70707E+00  0.96444E-01  0.46528E-01
  0.70707E+00  0.96444E-01  0.53472E-01
  0.70707E+00  0.96444E-01  0.66500E-01
  0.70707E+00  0.96444E-01  0.83500E-01
  0.70707E+00  0.96444E-01  0.96528E-01
  0.75401E+00  0.91682E-01  0.34716E-02
  0.75401E+00  0.91682E-01  0.16500E-01
  0.75401E+00  0.91682E-01  0.33500E-01
  0.75401E+00  0.91682E-01  0.46528E-01
  0.78295E+00  0.88601E-01  0.34716E-02
  0.78295E+00  0.88601E-01  0.16500E-01
  0.78295E+00  0.88601E-01  0.33500E-01
  0.78295E+00  0.88601E-01  0.46528E-01
  0.75401E+00  0.91682E-01  0.53472E-01
  0.75401E+00  0.91682E-01  0.66500E-01
  0.75401E+00  0.91682E-01  0.83500E-01
  0.75401E+00  0.91682E-01  0.96528E-01
  0.78295E+00  0.88601E-01  0.53472E-01
  0.78295E+00  0.88601E-01  0.66500E-01
  0.78295E+00  0.88601E-01  0.83500E-01
  0.78295E+00  0.88601E-01  0.96528E-01
  0.80774E+00  0.34253E-01  0.34716E-02
  0.80774E+00  0.34253E-01  0.16500E-01
  0.80774E+00  0.34253E-01  0.33500E-01
  0.80774E+00  0.34253E-01  0.46528E-01
  0.80774E+00  0.34253E-01  0.53472E-01
  0.80774E+00  0.34253E-01  0.66500E-01
  0.80774E+00  0.34253E-01  0.83500E-01
  0.80774E+00  0.34253E-01  0.96528E-01
  0.92179E+00  0.47902E-01  0.34716E-02
  0.92179E+00  0.47902E-01  0.16500E-01
  0.92179E+00  0.47902E-01  0.33500E-01
  0.92179E+00  0.47902E-01  0.46528E-01
  0.92179E+00  0.47902E-01  0.53472E-01
  0.92179E+00  0.47902E-01  0.66500E-01
  0.92179E+00  0.47902E-01  0.83500E-01
  0.92179E+00  0.47902E-01  0.96528E-01
  0.94198E+00  0.69621E-01  0.34716E-02
  0.94198E+00  0.69621E-01  0.16500E-01
  0.94198E+00  0.69621E-01  0.33500E-01
  0.94198E+00  0.69621E-01  0.46528E-01
  0.94198E+00  0.69621E-01  0.53472E-01
  0.94198E+00  0.69621E-01  0.66500E-01
  0.94198E+00  0.69621E-01  0.83500E-01
  0.94198E+00  0.69621E-01  0.96528E-01
  0.97554E+00  0.65132E-01  0.34716E-02
  0.97554E+00  0.65132E-01  0.16500E-01
  0.97554E+00  0.65132E-01  0.33500E-01
  0.97554E+00  0.65132E-01  0.46528E-01
  0.97554E+00  0.65132E-01  0.53472E-01
  0.97554E+00  0.65132E-01  0.66500E-01
  0.97554E+00  0.65132E-01  0.83500E-01
  0.97554E+00  0.65132E-01  0.96528E-01
