           TITLE = "KD-tree"
VARIABLES = "x", "y", "z"
ZONE NODES=8, ELEMENTS = 6, DATAPACKING=POINT, ZONETYPE=FETETRAHEDRON
  0.10011E+01  0.11907E+00  0.10008E+00
  0.84129E+00  0.11931E+00  0.10008E+00
  0.84129E+00  0.11934E+00 -0.49079E-04
  0.10011E+01  0.11909E+00 -0.49104E-04
  0.10011E+01  0.84910E-01  0.10007E+00
  0.84124E+00  0.85152E-01  0.10007E+00
  0.84124E+00  0.85174E-01 -0.56512E-04
  0.10011E+01  0.84932E-01 -0.56536E-04
 1 2 3 4
 1 5 8 4
 5 6 7 8
 2 3 7 6
 4 8 7 3
 1 2 6 5
ZONE NODES=8, ELEMENTS = 6, DATAPACKING=POINT, ZONETYPE=FETETRAHEDRON
  0.10011E+01  0.84910E-01  0.10007E+00
  0.96761E+00  0.84961E-01  0.10007E+00
  0.96761E+00  0.84982E-01 -0.56531E-04
  0.10011E+01  0.84932E-01 -0.56536E-04
  0.10011E+01  0.65731E-01  0.10007E+00
  0.96758E+00  0.65782E-01  0.10007E+00
  0.96758E+00  0.65804E-01 -0.60703E-04
  0.10011E+01  0.65753E-01 -0.60708E-04
 1 2 3 4
 1 5 8 4
 5 6 7 8
 2 3 7 6
 4 8 7 3
 1 2 6 5
ZONE NODES=8, ELEMENTS = 6, DATAPACKING=POINT, ZONETYPE=FETETRAHEDRON
  0.10011E+01  0.65731E-01  0.10007E+00
  0.96758E+00  0.65782E-01  0.10007E+00
  0.96758E+00  0.65782E-01  0.10000E+00
  0.10011E+01  0.65731E-01  0.10000E+00
  0.10010E+01  0.61421E-01  0.10006E+00
  0.96758E+00  0.61472E-01  0.10006E+00
  0.96758E+00  0.61472E-01  0.10000E+00
  0.10010E+01  0.61421E-01  0.10000E+00
 1 2 3 4
 1 5 8 4
 5 6 7 8
 2 3 7 6
 4 8 7 3
 1 2 6 5
ZONE NODES=8, ELEMENTS = 6, DATAPACKING=POINT, ZONETYPE=FETETRAHEDRON
  0.10011E+01  0.65731E-01  0.10000E+00
  0.96758E+00  0.65782E-01  0.10000E+00
  0.96758E+00  0.65804E-01  0.24134E-05
  0.10011E+01  0.65753E-01  0.24082E-05
  0.10010E+01  0.61421E-01  0.10000E+00
  0.96758E+00  0.61472E-01  0.10000E+00
  0.96758E+00  0.61494E-01  0.14757E-05
  0.10010E+01  0.61443E-01  0.14706E-05
 1 2 3 4
 1 5 8 4
 5 6 7 8
 2 3 7 6
 4 8 7 3
 1 2 6 5
ZONE NODES=8, ELEMENTS = 6, DATAPACKING=POINT, ZONETYPE=FETETRAHEDRON
  0.10011E+01  0.65753E-01  0.24082E-05
  0.96758E+00  0.65804E-01  0.24134E-05
  0.96758E+00  0.65804E-01 -0.60703E-04
  0.10011E+01  0.65753E-01 -0.60708E-04
  0.10010E+01  0.61443E-01  0.14706E-05
  0.96758E+00  0.61494E-01  0.14757E-05
  0.96758E+00  0.61494E-01 -0.61641E-04
  0.10010E+01  0.61443E-01 -0.61646E-04
 1 2 3 4
 1 5 8 4
 5 6 7 8
 2 3 7 6
 4 8 7 3
 1 2 6 5
ZONE NODES=8, ELEMENTS = 6, DATAPACKING=POINT, ZONETYPE=FETETRAHEDRON
  0.96761E+00  0.84961E-01  0.10007E+00
  0.90446E+00  0.85056E-01  0.10007E+00
  0.90446E+00  0.85078E-01 -0.56521E-04
  0.96761E+00  0.84982E-01 -0.56531E-04
  0.96759E+00  0.73889E-01  0.10007E+00
  0.90445E+00  0.73984E-01  0.10007E+00
  0.90445E+00  0.74006E-01 -0.58930E-04
  0.96759E+00  0.73910E-01 -0.58940E-04
 1 2 3 4
 1 5 8 4
 5 6 7 8
 2 3 7 6
 4 8 7 3
 1 2 6 5
ZONE NODES=8, ELEMENTS = 6, DATAPACKING=POINT, ZONETYPE=FETETRAHEDRON
  0.96759E+00  0.73889E-01  0.10007E+00
  0.93603E+00  0.73937E-01  0.10007E+00
  0.93603E+00  0.73937E-01  0.10000E+00
  0.96759E+00  0.73889E-01  0.10000E+00
  0.96759E+00  0.69911E-01  0.10007E+00
  0.93602E+00  0.69959E-01  0.10007E+00
  0.93602E+00  0.69959E-01  0.10000E+00
  0.96759E+00  0.69911E-01  0.10000E+00
 1 2 3 4
 1 5 8 4
 5 6 7 8
 2 3 7 6
 4 8 7 3
 1 2 6 5
ZONE NODES=8, ELEMENTS = 6, DATAPACKING=POINT, ZONETYPE=FETETRAHEDRON
  0.96759E+00  0.69911E-01  0.10007E+00
  0.93602E+00  0.69959E-01  0.10007E+00
  0.93602E+00  0.69959E-01  0.10000E+00
  0.96759E+00  0.69911E-01  0.10000E+00
  0.96758E+00  0.65782E-01  0.10007E+00
  0.93602E+00  0.65830E-01  0.10007E+00
  0.93602E+00  0.65830E-01  0.99999E-01
  0.96758E+00  0.65782E-01  0.99999E-01
 1 2 3 4
 1 5 8 4
 5 6 7 8
 2 3 7 6
 4 8 7 3
 1 2 6 5
ZONE NODES=8, ELEMENTS = 6, DATAPACKING=POINT, ZONETYPE=FETETRAHEDRON
  0.96758E+00  0.65782E-01  0.10007E+00
  0.96758E+00  0.65782E-01  0.10007E+00
  0.96758E+00  0.65782E-01  0.99999E-01
  0.96758E+00  0.65782E-01  0.99999E-01
  0.96758E+00  0.61472E-01  0.10006E+00
  0.96758E+00  0.61472E-01  0.10006E+00
  0.96758E+00  0.61472E-01  0.99998E-01
  0.96758E+00  0.61472E-01  0.99998E-01
 1 2 3 4
 1 5 8 4
 5 6 7 8
 2 3 7 6
 4 8 7 3
 1 2 6 5
ZONE NODES=8, ELEMENTS = 6, DATAPACKING=POINT, ZONETYPE=FETETRAHEDRON
  0.96758E+00  0.65782E-01  0.10007E+00
  0.93602E+00  0.65830E-01  0.10007E+00
  0.93602E+00  0.65830E-01  0.99999E-01
  0.96758E+00  0.65782E-01  0.99999E-01
  0.96758E+00  0.61472E-01  0.10006E+00
  0.93601E+00  0.61520E-01  0.10006E+00
  0.93601E+00  0.61520E-01  0.99998E-01
  0.96758E+00  0.61472E-01  0.99998E-01
 1 2 3 4
 1 5 8 4
 5 6 7 8
 2 3 7 6
 4 8 7 3
 1 2 6 5
ZONE NODES=8, ELEMENTS = 6, DATAPACKING=POINT, ZONETYPE=FETETRAHEDRON
  0.93603E+00  0.73937E-01  0.10007E+00
  0.90445E+00  0.73984E-01  0.10007E+00
  0.90445E+00  0.73985E-01  0.10000E+00
  0.93603E+00  0.73937E-01  0.10000E+00
  0.93602E+00  0.69959E-01  0.10007E+00
  0.90444E+00  0.70007E-01  0.10007E+00
  0.90444E+00  0.70007E-01  0.10000E+00
  0.93602E+00  0.69959E-01  0.10000E+00
 1 2 3 4
 1 5 8 4
 5 6 7 8
 2 3 7 6
 4 8 7 3
 1 2 6 5
ZONE NODES=8, ELEMENTS = 6, DATAPACKING=POINT, ZONETYPE=FETETRAHEDRON
  0.93602E+00  0.69959E-01  0.10007E+00
  0.90444E+00  0.70007E-01  0.10007E+00
  0.90444E+00  0.70007E-01  0.10000E+00
  0.93602E+00  0.69959E-01  0.10000E+00
  0.93602E+00  0.69937E-01  0.10007E+00
  0.90444E+00  0.69985E-01  0.10007E+00
  0.90444E+00  0.69985E-01  0.10000E+00
  0.93602E+00  0.69937E-01  0.10000E+00
 1 2 3 4
 1 5 8 4
 5 6 7 8
 2 3 7 6
 4 8 7 3
 1 2 6 5
ZONE NODES=8, ELEMENTS = 6, DATAPACKING=POINT, ZONETYPE=FETETRAHEDRON
  0.93602E+00  0.69937E-01  0.10007E+00
  0.90444E+00  0.69985E-01  0.10007E+00
  0.90444E+00  0.69985E-01  0.10000E+00
  0.93602E+00  0.69937E-01  0.10000E+00
  0.93601E+00  0.61520E-01  0.10006E+00
  0.90443E+00  0.61568E-01  0.10006E+00
  0.90443E+00  0.61568E-01  0.99998E-01
  0.93601E+00  0.61520E-01  0.99998E-01
 1 2 3 4
 1 5 8 4
 5 6 7 8
 2 3 7 6
 4 8 7 3
 1 2 6 5
ZONE NODES=8, ELEMENTS = 6, DATAPACKING=POINT, ZONETYPE=FETETRAHEDRON
  0.96759E+00  0.73889E-01  0.10000E+00
  0.93603E+00  0.73937E-01  0.10000E+00
  0.93603E+00  0.73958E-01  0.41818E-05
  0.96759E+00  0.73910E-01  0.41770E-05
  0.96758E+00  0.61472E-01  0.99998E-01
  0.93601E+00  0.61520E-01  0.99998E-01
  0.93601E+00  0.61542E-01  0.14805E-05
  0.96758E+00  0.61494E-01  0.14757E-05
 1 2 3 4
 1 5 8 4
 5 6 7 8
 2 3 7 6
 4 8 7 3
 1 2 6 5
ZONE NODES=8, ELEMENTS = 6, DATAPACKING=POINT, ZONETYPE=FETETRAHEDRON
  0.93603E+00  0.73937E-01  0.10000E+00
  0.90445E+00  0.73985E-01  0.10000E+00
  0.90445E+00  0.74006E-01  0.41867E-05
  0.93603E+00  0.73958E-01  0.41818E-05
  0.93601E+00  0.61520E-01  0.99998E-01
  0.90443E+00  0.61568E-01  0.99998E-01
  0.90443E+00  0.61590E-01  0.14854E-05
  0.93601E+00  0.61542E-01  0.14805E-05
 1 2 3 4
 1 5 8 4
 5 6 7 8
 2 3 7 6
 4 8 7 3
 1 2 6 5
ZONE NODES=8, ELEMENTS = 6, DATAPACKING=POINT, ZONETYPE=FETETRAHEDRON
  0.96759E+00  0.73910E-01  0.41770E-05
  0.93603E+00  0.73958E-01  0.41818E-05
  0.93603E+00  0.73958E-01 -0.58935E-04
  0.96759E+00  0.73910E-01 -0.58940E-04
  0.96759E+00  0.69911E-01  0.33068E-05
  0.93602E+00  0.69959E-01  0.33117E-05
  0.93602E+00  0.69959E-01 -0.59805E-04
  0.96759E+00  0.69911E-01 -0.59810E-04
 1 2 3 4
 1 5 8 4
 5 6 7 8
 2 3 7 6
 4 8 7 3
 1 2 6 5
ZONE NODES=8, ELEMENTS = 6, DATAPACKING=POINT, ZONETYPE=FETETRAHEDRON
  0.93603E+00  0.73958E-01  0.41818E-05
  0.90445E+00  0.74006E-01  0.41867E-05
  0.90445E+00  0.74006E-01 -0.58930E-04
  0.93603E+00  0.73958E-01 -0.58935E-04
  0.93602E+00  0.69959E-01  0.33117E-05
  0.90444E+00  0.70007E-01  0.33165E-05
  0.90444E+00  0.70007E-01 -0.59800E-04
  0.93602E+00  0.69959E-01 -0.59805E-04
 1 2 3 4
 1 5 8 4
 5 6 7 8
 2 3 7 6
 4 8 7 3
 1 2 6 5
ZONE NODES=8, ELEMENTS = 6, DATAPACKING=POINT, ZONETYPE=FETETRAHEDRON
  0.96759E+00  0.69911E-01  0.33068E-05
  0.93602E+00  0.69959E-01  0.33117E-05
  0.93602E+00  0.69959E-01 -0.59805E-04
  0.96759E+00  0.69911E-01 -0.59810E-04
  0.96758E+00  0.61494E-01  0.14757E-05
  0.93601E+00  0.61542E-01  0.14805E-05
  0.93601E+00  0.61542E-01 -0.61636E-04
  0.96758E+00  0.61494E-01 -0.61641E-04
 1 2 3 4
 1 5 8 4
 5 6 7 8
 2 3 7 6
 4 8 7 3
 1 2 6 5
ZONE NODES=8, ELEMENTS = 6, DATAPACKING=POINT, ZONETYPE=FETETRAHEDRON
  0.93602E+00  0.69959E-01  0.33117E-05
  0.90444E+00  0.70007E-01  0.33165E-05
  0.90444E+00  0.70007E-01 -0.59800E-04
  0.93602E+00  0.69959E-01 -0.59805E-04
  0.93601E+00  0.61542E-01  0.14805E-05
  0.90443E+00  0.61590E-01  0.14854E-05
  0.90443E+00  0.61590E-01 -0.61631E-04
  0.93601E+00  0.61542E-01 -0.61636E-04
 1 2 3 4
 1 5 8 4
 5 6 7 8
 2 3 7 6
 4 8 7 3
 1 2 6 5
ZONE NODES=8, ELEMENTS = 6, DATAPACKING=POINT, ZONETYPE=FETETRAHEDRON
  0.90446E+00  0.85056E-01  0.10007E+00
  0.87286E+00  0.85104E-01  0.10007E+00
  0.87286E+00  0.85104E-01  0.10000E+00
  0.90446E+00  0.85056E-01  0.10000E+00
  0.90445E+00  0.77819E-01  0.10007E+00
  0.87285E+00  0.77867E-01  0.10007E+00
  0.87285E+00  0.77867E-01  0.10000E+00
  0.90445E+00  0.77819E-01  0.10000E+00
 1 2 3 4
 1 5 8 4
 5 6 7 8
 2 3 7 6
 4 8 7 3
 1 2 6 5
ZONE NODES=8, ELEMENTS = 6, DATAPACKING=POINT, ZONETYPE=FETETRAHEDRON
  0.87286E+00  0.85104E-01  0.10007E+00
  0.84124E+00  0.85152E-01  0.10007E+00
  0.84124E+00  0.85152E-01  0.10000E+00
  0.87286E+00  0.85104E-01  0.10000E+00
  0.87285E+00  0.81564E-01  0.10007E+00
  0.84124E+00  0.81612E-01  0.10007E+00
  0.84124E+00  0.81612E-01  0.10000E+00
  0.87285E+00  0.81564E-01  0.10000E+00
 1 2 3 4
 1 5 8 4
 5 6 7 8
 2 3 7 6
 4 8 7 3
 1 2 6 5
ZONE NODES=8, ELEMENTS = 6, DATAPACKING=POINT, ZONETYPE=FETETRAHEDRON
  0.87285E+00  0.81564E-01  0.10007E+00
  0.84124E+00  0.81612E-01  0.10007E+00
  0.84124E+00  0.81612E-01  0.10000E+00
  0.87285E+00  0.81564E-01  0.10000E+00
  0.87285E+00  0.77867E-01  0.10007E+00
  0.84123E+00  0.77915E-01  0.10007E+00
  0.84123E+00  0.77915E-01  0.10000E+00
  0.87285E+00  0.77867E-01  0.10000E+00
 1 2 3 4
 1 5 8 4
 5 6 7 8
 2 3 7 6
 4 8 7 3
 1 2 6 5
ZONE NODES=8, ELEMENTS = 6, DATAPACKING=POINT, ZONETYPE=FETETRAHEDRON
  0.90445E+00  0.77819E-01  0.10007E+00
  0.87285E+00  0.77867E-01  0.10007E+00
  0.87285E+00  0.77867E-01  0.10000E+00
  0.90445E+00  0.77819E-01  0.10000E+00
  0.90445E+00  0.73984E-01  0.10007E+00
  0.87284E+00  0.74032E-01  0.10007E+00
  0.87284E+00  0.74032E-01  0.99999E-01
  0.90445E+00  0.73985E-01  0.99999E-01
 1 2 3 4
 1 5 8 4
 5 6 7 8
 2 3 7 6
 4 8 7 3
 1 2 6 5
ZONE NODES=8, ELEMENTS = 6, DATAPACKING=POINT, ZONETYPE=FETETRAHEDRON
  0.87285E+00  0.77867E-01  0.10007E+00
  0.87285E+00  0.77867E-01  0.10007E+00
  0.87285E+00  0.77867E-01  0.10000E+00
  0.87285E+00  0.77867E-01  0.10000E+00
  0.87284E+00  0.74032E-01  0.10007E+00
  0.87284E+00  0.74032E-01  0.10007E+00
  0.87284E+00  0.74032E-01  0.99999E-01
  0.87284E+00  0.74032E-01  0.99999E-01
 1 2 3 4
 1 5 8 4
 5 6 7 8
 2 3 7 6
 4 8 7 3
 1 2 6 5
ZONE NODES=8, ELEMENTS = 6, DATAPACKING=POINT, ZONETYPE=FETETRAHEDRON
  0.87285E+00  0.77867E-01  0.10007E+00
  0.84123E+00  0.77915E-01  0.10007E+00
  0.84123E+00  0.77915E-01  0.10000E+00
  0.87285E+00  0.77867E-01  0.10000E+00
  0.87285E+00  0.77845E-01  0.10007E+00
  0.84123E+00  0.77893E-01  0.10007E+00
  0.84123E+00  0.77893E-01  0.10000E+00
  0.87285E+00  0.77845E-01  0.10000E+00
 1 2 3 4
 1 5 8 4
 5 6 7 8
 2 3 7 6
 4 8 7 3
 1 2 6 5
ZONE NODES=8, ELEMENTS = 6, DATAPACKING=POINT, ZONETYPE=FETETRAHEDRON
  0.87285E+00  0.77845E-01  0.10007E+00
  0.84123E+00  0.77893E-01  0.10007E+00
  0.84123E+00  0.77893E-01  0.10000E+00
  0.87285E+00  0.77845E-01  0.10000E+00
  0.87284E+00  0.74032E-01  0.10007E+00
  0.84122E+00  0.74080E-01  0.10007E+00
  0.84122E+00  0.74080E-01  0.99999E-01
  0.87284E+00  0.74032E-01  0.99999E-01
 1 2 3 4
 1 5 8 4
 5 6 7 8
 2 3 7 6
 4 8 7 3
 1 2 6 5
ZONE NODES=8, ELEMENTS = 6, DATAPACKING=POINT, ZONETYPE=FETETRAHEDRON
  0.90445E+00  0.73984E-01  0.10007E+00
  0.90445E+00  0.73984E-01  0.10007E+00
  0.90445E+00  0.73985E-01  0.99999E-01
  0.90445E+00  0.73985E-01  0.99999E-01
  0.90444E+00  0.70007E-01  0.10007E+00
  0.90444E+00  0.70007E-01  0.10007E+00
  0.90444E+00  0.70007E-01  0.99998E-01
  0.90444E+00  0.70007E-01  0.99998E-01
 1 2 3 4
 1 5 8 4
 5 6 7 8
 2 3 7 6
 4 8 7 3
 1 2 6 5
ZONE NODES=8, ELEMENTS = 6, DATAPACKING=POINT, ZONETYPE=FETETRAHEDRON
  0.90445E+00  0.73984E-01  0.10007E+00
  0.87284E+00  0.74032E-01  0.10007E+00
  0.87284E+00  0.74032E-01  0.99999E-01
  0.90445E+00  0.73985E-01  0.99999E-01
  0.90444E+00  0.70007E-01  0.10007E+00
  0.87284E+00  0.70055E-01  0.10007E+00
  0.87284E+00  0.70055E-01  0.99999E-01
  0.90444E+00  0.70007E-01  0.99998E-01
 1 2 3 4
 1 5 8 4
 5 6 7 8
 2 3 7 6
 4 8 7 3
 1 2 6 5
ZONE NODES=8, ELEMENTS = 6, DATAPACKING=POINT, ZONETYPE=FETETRAHEDRON
  0.87284E+00  0.74032E-01  0.10007E+00
  0.84122E+00  0.74080E-01  0.10007E+00
  0.84122E+00  0.74080E-01  0.99999E-01
  0.87284E+00  0.74032E-01  0.99999E-01
  0.87284E+00  0.70055E-01  0.10007E+00
  0.84122E+00  0.70102E-01  0.10007E+00
  0.84122E+00  0.70103E-01  0.99999E-01
  0.87284E+00  0.70055E-01  0.99999E-01
 1 2 3 4
 1 5 8 4
 5 6 7 8
 2 3 7 6
 4 8 7 3
 1 2 6 5
ZONE NODES=8, ELEMENTS = 6, DATAPACKING=POINT, ZONETYPE=FETETRAHEDRON
  0.90444E+00  0.70007E-01  0.10007E+00
  0.84122E+00  0.70102E-01  0.10007E+00
  0.84122E+00  0.70103E-01  0.99999E-01
  0.90444E+00  0.70007E-01  0.99998E-01
  0.90443E+00  0.61568E-01  0.10006E+00
  0.84121E+00  0.61664E-01  0.10006E+00
  0.84121E+00  0.61664E-01  0.99997E-01
  0.90443E+00  0.61568E-01  0.99997E-01
 1 2 3 4
 1 5 8 4
 5 6 7 8
 2 3 7 6
 4 8 7 3
 1 2 6 5
ZONE NODES=8, ELEMENTS = 6, DATAPACKING=POINT, ZONETYPE=FETETRAHEDRON
  0.90446E+00  0.85056E-01  0.10000E+00
  0.87286E+00  0.85104E-01  0.10000E+00
  0.87286E+00  0.85126E-01  0.66003E-05
  0.90446E+00  0.85078E-01  0.65954E-05
  0.90444E+00  0.70007E-01  0.99998E-01
  0.87284E+00  0.70055E-01  0.99999E-01
  0.87284E+00  0.70076E-01  0.33261E-05
  0.90444E+00  0.70028E-01  0.33213E-05
 1 2 3 4
 1 5 8 4
 5 6 7 8
 2 3 7 6
 4 8 7 3
 1 2 6 5
ZONE NODES=8, ELEMENTS = 6, DATAPACKING=POINT, ZONETYPE=FETETRAHEDRON
  0.90444E+00  0.70007E-01  0.99998E-01
  0.87284E+00  0.70055E-01  0.99999E-01
  0.87284E+00  0.70076E-01  0.33261E-05
  0.90444E+00  0.70028E-01  0.33213E-05
  0.90443E+00  0.61568E-01  0.99997E-01
  0.87282E+00  0.61616E-01  0.99997E-01
  0.87282E+00  0.61638E-01  0.14903E-05
  0.90443E+00  0.61590E-01  0.14854E-05
 1 2 3 4
 1 5 8 4
 5 6 7 8
 2 3 7 6
 4 8 7 3
 1 2 6 5
ZONE NODES=8, ELEMENTS = 6, DATAPACKING=POINT, ZONETYPE=FETETRAHEDRON
  0.87286E+00  0.85104E-01  0.10000E+00
  0.84124E+00  0.85152E-01  0.10000E+00
  0.84124E+00  0.85174E-01  0.66051E-05
  0.87286E+00  0.85126E-01  0.66003E-05
  0.87285E+00  0.77845E-01  0.10000E+00
  0.84123E+00  0.77893E-01  0.10000E+00
  0.84123E+00  0.77915E-01  0.50259E-05
  0.87285E+00  0.77867E-01  0.50210E-05
 1 2 3 4
 1 5 8 4
 5 6 7 8
 2 3 7 6
 4 8 7 3
 1 2 6 5
ZONE NODES=8, ELEMENTS = 6, DATAPACKING=POINT, ZONETYPE=FETETRAHEDRON
  0.87285E+00  0.77845E-01  0.10000E+00
  0.84123E+00  0.77893E-01  0.10000E+00
  0.84123E+00  0.77915E-01  0.50259E-05
  0.87285E+00  0.77867E-01  0.50210E-05
  0.87282E+00  0.61616E-01  0.99997E-01
  0.84121E+00  0.61664E-01  0.99997E-01
  0.84121E+00  0.61686E-01  0.14951E-05
  0.87282E+00  0.61638E-01  0.14903E-05
 1 2 3 4
 1 5 8 4
 5 6 7 8
 2 3 7 6
 4 8 7 3
 1 2 6 5
ZONE NODES=8, ELEMENTS = 6, DATAPACKING=POINT, ZONETYPE=FETETRAHEDRON
  0.90446E+00  0.85078E-01  0.65954E-05
  0.87286E+00  0.85126E-01  0.66003E-05
  0.87286E+00  0.85126E-01 -0.56516E-04
  0.90446E+00  0.85078E-01 -0.56521E-04
  0.90445E+00  0.77841E-01  0.50209E-05
  0.87285E+00  0.77889E-01  0.50258E-05
  0.87285E+00  0.77889E-01 -0.58091E-04
  0.90445E+00  0.77841E-01 -0.58096E-04
 1 2 3 4
 1 5 8 4
 5 6 7 8
 2 3 7 6
 4 8 7 3
 1 2 6 5
ZONE NODES=8, ELEMENTS = 6, DATAPACKING=POINT, ZONETYPE=FETETRAHEDRON
  0.90445E+00  0.77841E-01  0.50209E-05
  0.90445E+00  0.77841E-01  0.50209E-05
  0.90445E+00  0.77841E-01  0.10123E-05
  0.90445E+00  0.77841E-01  0.10123E-05
  0.90445E+00  0.73985E-01  0.41820E-05
  0.90445E+00  0.73985E-01  0.41820E-05
  0.90445E+00  0.73985E-01  0.17332E-06
  0.90445E+00  0.73985E-01  0.17332E-06
 1 2 3 4
 1 5 8 4
 5 6 7 8
 2 3 7 6
 4 8 7 3
 1 2 6 5
ZONE NODES=8, ELEMENTS = 6, DATAPACKING=POINT, ZONETYPE=FETETRAHEDRON
  0.90445E+00  0.77841E-01  0.10123E-05
  0.90445E+00  0.77841E-01  0.10123E-05
  0.90445E+00  0.77841E-01 -0.58096E-04
  0.90445E+00  0.77841E-01 -0.58096E-04
  0.90445E+00  0.73985E-01  0.17332E-06
  0.90445E+00  0.73985E-01  0.17332E-06
  0.90445E+00  0.73985E-01 -0.58935E-04
  0.90445E+00  0.73985E-01 -0.58935E-04
 1 2 3 4
 1 5 8 4
 5 6 7 8
 2 3 7 6
 4 8 7 3
 1 2 6 5
ZONE NODES=8, ELEMENTS = 6, DATAPACKING=POINT, ZONETYPE=FETETRAHEDRON
  0.90445E+00  0.77841E-01  0.50209E-05
  0.87285E+00  0.77889E-01  0.50258E-05
  0.87285E+00  0.77889E-01 -0.58091E-04
  0.90445E+00  0.77841E-01 -0.58096E-04
  0.90445E+00  0.73985E-01  0.41820E-05
  0.87284E+00  0.74032E-01  0.41868E-05
  0.87284E+00  0.74032E-01 -0.58930E-04
  0.90445E+00  0.73985E-01 -0.58935E-04
 1 2 3 4
 1 5 8 4
 5 6 7 8
 2 3 7 6
 4 8 7 3
 1 2 6 5
ZONE NODES=8, ELEMENTS = 6, DATAPACKING=POINT, ZONETYPE=FETETRAHEDRON
  0.87286E+00  0.85126E-01  0.66003E-05
  0.84124E+00  0.85174E-01  0.66051E-05
  0.84124E+00  0.85174E-01 -0.56512E-04
  0.87286E+00  0.85126E-01 -0.56516E-04
  0.87285E+00  0.81585E-01  0.58300E-05
  0.84124E+00  0.81633E-01  0.58348E-05
  0.84124E+00  0.81633E-01 -0.57282E-04
  0.87285E+00  0.81585E-01 -0.57287E-04
 1 2 3 4
 1 5 8 4
 5 6 7 8
 2 3 7 6
 4 8 7 3
 1 2 6 5
ZONE NODES=8, ELEMENTS = 6, DATAPACKING=POINT, ZONETYPE=FETETRAHEDRON
  0.87285E+00  0.81585E-01  0.58300E-05
  0.84124E+00  0.81633E-01  0.58348E-05
  0.84124E+00  0.81633E-01 -0.57282E-04
  0.87285E+00  0.81585E-01 -0.57287E-04
  0.87285E+00  0.77889E-01  0.50258E-05
  0.84123E+00  0.77937E-01  0.50306E-05
  0.84123E+00  0.77937E-01 -0.58086E-04
  0.87285E+00  0.77889E-01 -0.58091E-04
 1 2 3 4
 1 5 8 4
 5 6 7 8
 2 3 7 6
 4 8 7 3
 1 2 6 5
ZONE NODES=8, ELEMENTS = 6, DATAPACKING=POINT, ZONETYPE=FETETRAHEDRON
  0.87285E+00  0.77889E-01  0.50258E-05
  0.87285E+00  0.77889E-01  0.50258E-05
  0.87285E+00  0.77889E-01 -0.58091E-04
  0.87285E+00  0.77889E-01 -0.58091E-04
  0.87284E+00  0.74032E-01  0.41868E-05
  0.87284E+00  0.74032E-01  0.41868E-05
  0.87284E+00  0.74032E-01 -0.58930E-04
  0.87284E+00  0.74032E-01 -0.58930E-04
 1 2 3 4
 1 5 8 4
 5 6 7 8
 2 3 7 6
 4 8 7 3
 1 2 6 5
ZONE NODES=8, ELEMENTS = 6, DATAPACKING=POINT, ZONETYPE=FETETRAHEDRON
  0.87285E+00  0.77889E-01  0.50258E-05
  0.84123E+00  0.77937E-01  0.50306E-05
  0.84123E+00  0.77937E-01 -0.58086E-04
  0.87285E+00  0.77889E-01 -0.58091E-04
  0.87284E+00  0.74032E-01  0.41868E-05
  0.84122E+00  0.74080E-01  0.41917E-05
  0.84122E+00  0.74080E-01 -0.58925E-04
  0.87284E+00  0.74032E-01 -0.58930E-04
 1 2 3 4
 1 5 8 4
 5 6 7 8
 2 3 7 6
 4 8 7 3
 1 2 6 5
ZONE NODES=8, ELEMENTS = 6, DATAPACKING=POINT, ZONETYPE=FETETRAHEDRON
  0.84124E+00  0.85174E-01  0.66051E-05
  0.84124E+00  0.85174E-01  0.66051E-05
  0.84124E+00  0.85174E-01  0.10060E-05
  0.84124E+00  0.85174E-01  0.10060E-05
  0.84123E+00  0.77937E-01  0.50306E-05
  0.84123E+00  0.77937E-01  0.50306E-05
  0.84123E+00  0.77937E-01 -0.56852E-06
  0.84123E+00  0.77937E-01 -0.56852E-06
 1 2 3 4
 1 5 8 4
 5 6 7 8
 2 3 7 6
 4 8 7 3
 1 2 6 5
ZONE NODES=8, ELEMENTS = 6, DATAPACKING=POINT, ZONETYPE=FETETRAHEDRON
  0.84123E+00  0.77937E-01  0.50306E-05
  0.84123E+00  0.77937E-01  0.50306E-05
  0.84123E+00  0.77937E-01 -0.56852E-06
  0.84123E+00  0.77937E-01 -0.56852E-06
  0.84122E+00  0.74080E-01  0.41917E-05
  0.84122E+00  0.74080E-01  0.41917E-05
  0.84122E+00  0.74080E-01 -0.14075E-05
  0.84122E+00  0.74080E-01 -0.14075E-05
 1 2 3 4
 1 5 8 4
 5 6 7 8
 2 3 7 6
 4 8 7 3
 1 2 6 5
ZONE NODES=8, ELEMENTS = 6, DATAPACKING=POINT, ZONETYPE=FETETRAHEDRON
  0.84124E+00  0.85174E-01  0.10060E-05
  0.84124E+00  0.85174E-01  0.10060E-05
  0.84124E+00  0.85174E-01 -0.56512E-04
  0.84124E+00  0.85174E-01 -0.56512E-04
  0.84122E+00  0.74080E-01 -0.14075E-05
  0.84122E+00  0.74080E-01 -0.14075E-05
  0.84122E+00  0.74080E-01 -0.58925E-04
  0.84122E+00  0.74080E-01 -0.58925E-04
 1 2 3 4
 1 5 8 4
 5 6 7 8
 2 3 7 6
 4 8 7 3
 1 2 6 5
ZONE NODES=8, ELEMENTS = 6, DATAPACKING=POINT, ZONETYPE=FETETRAHEDRON
  0.90445E+00  0.73985E-01  0.41820E-05
  0.90445E+00  0.73985E-01  0.41820E-05
  0.90445E+00  0.73985E-01  0.17332E-06
  0.90445E+00  0.73985E-01  0.17332E-06
  0.90444E+00  0.70007E-01  0.33165E-05
  0.90444E+00  0.70007E-01  0.33165E-05
  0.90444E+00  0.70007E-01 -0.69210E-06
  0.90444E+00  0.70007E-01 -0.69210E-06
 1 2 3 4
 1 5 8 4
 5 6 7 8
 2 3 7 6
 4 8 7 3
 1 2 6 5
ZONE NODES=8, ELEMENTS = 6, DATAPACKING=POINT, ZONETYPE=FETETRAHEDRON
  0.90445E+00  0.73985E-01  0.17332E-06
  0.90445E+00  0.73985E-01  0.17332E-06
  0.90445E+00  0.73985E-01 -0.58935E-04
  0.90445E+00  0.73985E-01 -0.58935E-04
  0.90444E+00  0.70007E-01 -0.69210E-06
  0.90444E+00  0.70007E-01 -0.69210E-06
  0.90444E+00  0.70007E-01 -0.59800E-04
  0.90444E+00  0.70007E-01 -0.59800E-04
 1 2 3 4
 1 5 8 4
 5 6 7 8
 2 3 7 6
 4 8 7 3
 1 2 6 5
ZONE NODES=8, ELEMENTS = 6, DATAPACKING=POINT, ZONETYPE=FETETRAHEDRON
  0.90445E+00  0.73985E-01  0.41820E-05
  0.87284E+00  0.74032E-01  0.41868E-05
  0.87284E+00  0.74032E-01 -0.58930E-04
  0.90445E+00  0.73985E-01 -0.58935E-04
  0.90444E+00  0.70007E-01  0.33165E-05
  0.87284E+00  0.70055E-01  0.33214E-05
  0.87284E+00  0.70055E-01 -0.59795E-04
  0.90444E+00  0.70007E-01 -0.59800E-04
 1 2 3 4
 1 5 8 4
 5 6 7 8
 2 3 7 6
 4 8 7 3
 1 2 6 5
ZONE NODES=8, ELEMENTS = 6, DATAPACKING=POINT, ZONETYPE=FETETRAHEDRON
  0.90444E+00  0.70007E-01  0.33165E-05
  0.87284E+00  0.70055E-01  0.33214E-05
  0.87284E+00  0.70055E-01 -0.59795E-04
  0.90444E+00  0.70007E-01 -0.59800E-04
  0.90443E+00  0.61590E-01  0.14854E-05
  0.87282E+00  0.61638E-01  0.14903E-05
  0.87282E+00  0.61638E-01 -0.61626E-04
  0.90443E+00  0.61590E-01 -0.61631E-04
 1 2 3 4
 1 5 8 4
 5 6 7 8
 2 3 7 6
 4 8 7 3
 1 2 6 5
ZONE NODES=8, ELEMENTS = 6, DATAPACKING=POINT, ZONETYPE=FETETRAHEDRON
  0.87284E+00  0.74032E-01  0.41868E-05
  0.84122E+00  0.74080E-01  0.41917E-05
  0.84122E+00  0.74080E-01 -0.58925E-04
  0.87284E+00  0.74032E-01 -0.58930E-04
  0.87282E+00  0.61638E-01  0.14903E-05
  0.84121E+00  0.61686E-01  0.14951E-05
  0.84121E+00  0.61686E-01 -0.61622E-04
  0.87282E+00  0.61638E-01 -0.61626E-04
 1 2 3 4
 1 5 8 4
 5 6 7 8
 2 3 7 6
 4 8 7 3
 1 2 6 5
ZONE NODES=8, ELEMENTS = 6, DATAPACKING=POINT, ZONETYPE=FETETRAHEDRON
  0.84122E+00  0.74080E-01  0.41917E-05
  0.84122E+00  0.74080E-01  0.41917E-05
  0.84122E+00  0.74080E-01  0.10229E-05
  0.84122E+00  0.74080E-01  0.10229E-05
  0.84121E+00  0.61686E-01  0.14951E-05
  0.84121E+00  0.61686E-01  0.14951E-05
  0.84121E+00  0.61686E-01 -0.16737E-05
  0.84121E+00  0.61686E-01 -0.16737E-05
 1 2 3 4
 1 5 8 4
 5 6 7 8
 2 3 7 6
 4 8 7 3
 1 2 6 5
ZONE NODES=8, ELEMENTS = 6, DATAPACKING=POINT, ZONETYPE=FETETRAHEDRON
  0.84122E+00  0.74080E-01  0.10229E-05
  0.84122E+00  0.74080E-01  0.10229E-05
  0.84122E+00  0.74080E-01 -0.14075E-05
  0.84122E+00  0.74080E-01 -0.14075E-05
  0.84121E+00  0.61686E-01 -0.16737E-05
  0.84121E+00  0.61686E-01 -0.16737E-05
  0.84121E+00  0.61686E-01 -0.41040E-05
  0.84121E+00  0.61686E-01 -0.41040E-05
 1 2 3 4
 1 5 8 4
 5 6 7 8
 2 3 7 6
 4 8 7 3
 1 2 6 5
ZONE NODES=8, ELEMENTS = 6, DATAPACKING=POINT, ZONETYPE=FETETRAHEDRON
  0.84122E+00  0.74080E-01 -0.14075E-05
  0.84122E+00  0.74080E-01 -0.14075E-05
  0.84122E+00  0.74080E-01 -0.58925E-04
  0.84122E+00  0.74080E-01 -0.58925E-04
  0.84121E+00  0.61686E-01 -0.41040E-05
  0.84121E+00  0.61686E-01 -0.41040E-05
  0.84121E+00  0.61686E-01 -0.61622E-04
  0.84121E+00  0.61686E-01 -0.61622E-04
 1 2 3 4
 1 5 8 4
 5 6 7 8
 2 3 7 6
 4 8 7 3
 1 2 6 5
ZONE NODES=8, ELEMENTS = 6, DATAPACKING=POINT, ZONETYPE=FETETRAHEDRON
  0.10010E+01  0.61421E-01  0.10006E+00
  0.10005E+01  0.61422E-01  0.10006E+00
  0.10005E+01  0.61422E-01  0.10000E+00
  0.10010E+01  0.61421E-01  0.10000E+00
  0.10010E+01  0.59948E-01  0.10006E+00
  0.10005E+01  0.59949E-01  0.10006E+00
  0.10005E+01  0.59949E-01  0.10000E+00
  0.10010E+01  0.59948E-01  0.10000E+00
 1 2 3 4
 1 5 8 4
 5 6 7 8
 2 3 7 6
 4 8 7 3
 1 2 6 5
ZONE NODES=8, ELEMENTS = 6, DATAPACKING=POINT, ZONETYPE=FETETRAHEDRON
  0.10005E+01  0.61422E-01  0.10006E+00
  0.10002E+01  0.61423E-01  0.10006E+00
  0.10002E+01  0.61423E-01  0.10000E+00
  0.10005E+01  0.61422E-01  0.10000E+00
  0.10005E+01  0.59949E-01  0.10006E+00
  0.10002E+01  0.59949E-01  0.10006E+00
  0.10002E+01  0.59949E-01  0.10000E+00
  0.10005E+01  0.59949E-01  0.10000E+00
 1 2 3 4
 1 5 8 4
 5 6 7 8
 2 3 7 6
 4 8 7 3
 1 2 6 5
ZONE NODES=8, ELEMENTS = 6, DATAPACKING=POINT, ZONETYPE=FETETRAHEDRON
  0.10002E+01  0.61423E-01  0.10006E+00
  0.99911E+00  0.61424E-01  0.10006E+00
  0.99911E+00  0.61424E-01  0.10000E+00
  0.10002E+01  0.61423E-01  0.10000E+00
  0.10002E+01  0.61175E-01  0.10006E+00
  0.99911E+00  0.61176E-01  0.10006E+00
  0.99911E+00  0.61176E-01  0.10000E+00
  0.10002E+01  0.61175E-01  0.10000E+00
 1 2 3 4
 1 5 8 4
 5 6 7 8
 2 3 7 6
 4 8 7 3
 1 2 6 5
ZONE NODES=8, ELEMENTS = 6, DATAPACKING=POINT, ZONETYPE=FETETRAHEDRON
  0.10002E+01  0.61175E-01  0.10006E+00
  0.99911E+00  0.61176E-01  0.10006E+00
  0.99911E+00  0.61176E-01  0.10000E+00
  0.10002E+01  0.61175E-01  0.10000E+00
  0.10002E+01  0.59949E-01  0.10006E+00
  0.99911E+00  0.59951E-01  0.10006E+00
  0.99911E+00  0.59951E-01  0.10000E+00
  0.10002E+01  0.59949E-01  0.10000E+00
 1 2 3 4
 1 5 8 4
 5 6 7 8
 2 3 7 6
 4 8 7 3
 1 2 6 5
ZONE NODES=8, ELEMENTS = 6, DATAPACKING=POINT, ZONETYPE=FETETRAHEDRON
  0.10010E+01  0.59948E-01  0.10006E+00
  0.10003E+01  0.59949E-01  0.10006E+00
  0.10003E+01  0.59949E-01  0.10000E+00
  0.10010E+01  0.59948E-01  0.10000E+00
  0.10010E+01  0.59087E-01  0.10006E+00
  0.10003E+01  0.59089E-01  0.10006E+00
  0.10003E+01  0.59089E-01  0.10000E+00
  0.10010E+01  0.59087E-01  0.10000E+00
 1 2 3 4
 1 5 8 4
 5 6 7 8
 2 3 7 6
 4 8 7 3
 1 2 6 5
ZONE NODES=8, ELEMENTS = 6, DATAPACKING=POINT, ZONETYPE=FETETRAHEDRON
  0.10003E+01  0.59949E-01  0.10006E+00
  0.99911E+00  0.59951E-01  0.10006E+00
  0.99911E+00  0.59951E-01  0.10000E+00
  0.10003E+01  0.59949E-01  0.10000E+00
  0.10003E+01  0.59089E-01  0.10006E+00
  0.99911E+00  0.59090E-01  0.10006E+00
  0.99911E+00  0.59090E-01  0.10000E+00
  0.10003E+01  0.59089E-01  0.10000E+00
 1 2 3 4
 1 5 8 4
 5 6 7 8
 2 3 7 6
 4 8 7 3
 1 2 6 5
ZONE NODES=8, ELEMENTS = 6, DATAPACKING=POINT, ZONETYPE=FETETRAHEDRON
  0.10010E+01  0.59087E-01  0.10006E+00
  0.10002E+01  0.59089E-01  0.10006E+00
  0.10002E+01  0.59089E-01  0.10000E+00
  0.10010E+01  0.59087E-01  0.10000E+00
  0.10010E+01  0.58531E-01  0.10006E+00
  0.10002E+01  0.58533E-01  0.10006E+00
  0.10002E+01  0.58533E-01  0.99999E-01
  0.10010E+01  0.58532E-01  0.99999E-01
 1 2 3 4
 1 5 8 4
 5 6 7 8
 2 3 7 6
 4 8 7 3
 1 2 6 5
ZONE NODES=8, ELEMENTS = 6, DATAPACKING=POINT, ZONETYPE=FETETRAHEDRON
  0.10002E+01  0.59089E-01  0.10006E+00
  0.99911E+00  0.59090E-01  0.10006E+00
  0.99911E+00  0.59090E-01  0.10000E+00
  0.10002E+01  0.59089E-01  0.10000E+00
  0.10002E+01  0.58533E-01  0.10006E+00
  0.99910E+00  0.58534E-01  0.10006E+00
  0.99910E+00  0.58534E-01  0.99999E-01
  0.10002E+01  0.58533E-01  0.99999E-01
 1 2 3 4
 1 5 8 4
 5 6 7 8
 2 3 7 6
 4 8 7 3
 1 2 6 5
ZONE NODES=8, ELEMENTS = 6, DATAPACKING=POINT, ZONETYPE=FETETRAHEDRON
  0.10010E+01  0.58531E-01  0.10006E+00
  0.10005E+01  0.58532E-01  0.10006E+00
  0.10005E+01  0.58532E-01  0.99999E-01
  0.10010E+01  0.58532E-01  0.99999E-01
  0.10010E+01  0.56402E-01  0.10006E+00
  0.10005E+01  0.56403E-01  0.10006E+00
  0.10005E+01  0.56403E-01  0.99999E-01
  0.10010E+01  0.56402E-01  0.99999E-01
 1 2 3 4
 1 5 8 4
 5 6 7 8
 2 3 7 6
 4 8 7 3
 1 2 6 5
ZONE NODES=8, ELEMENTS = 6, DATAPACKING=POINT, ZONETYPE=FETETRAHEDRON
  0.10005E+01  0.58532E-01  0.10006E+00
  0.99970E+00  0.58534E-01  0.10006E+00
  0.99970E+00  0.58534E-01  0.99999E-01
  0.10005E+01  0.58532E-01  0.99999E-01
  0.10005E+01  0.56403E-01  0.10006E+00
  0.99969E+00  0.56404E-01  0.10006E+00
  0.99969E+00  0.56404E-01  0.99999E-01
  0.10005E+01  0.56403E-01  0.99999E-01
 1 2 3 4
 1 5 8 4
 5 6 7 8
 2 3 7 6
 4 8 7 3
 1 2 6 5
ZONE NODES=8, ELEMENTS = 6, DATAPACKING=POINT, ZONETYPE=FETETRAHEDRON
  0.99970E+00  0.58534E-01  0.10006E+00
  0.99910E+00  0.58534E-01  0.10006E+00
  0.99910E+00  0.58534E-01  0.99999E-01
  0.99970E+00  0.58534E-01  0.99999E-01
  0.99969E+00  0.56404E-01  0.10006E+00
  0.99910E+00  0.56405E-01  0.10006E+00
  0.99910E+00  0.56405E-01  0.99999E-01
  0.99969E+00  0.56404E-01  0.99999E-01
 1 2 3 4
 1 5 8 4
 5 6 7 8
 2 3 7 6
 4 8 7 3
 1 2 6 5
ZONE NODES=8, ELEMENTS = 6, DATAPACKING=POINT, ZONETYPE=FETETRAHEDRON
  0.10010E+01  0.56402E-01  0.10006E+00
  0.99910E+00  0.56405E-01  0.10006E+00
  0.99910E+00  0.56405E-01  0.99999E-01
  0.10010E+01  0.56402E-01  0.99999E-01
  0.10010E+01  0.54875E-01  0.10006E+00
  0.99910E+00  0.54878E-01  0.10006E+00
  0.99910E+00  0.54878E-01  0.99999E-01
  0.10010E+01  0.54875E-01  0.99999E-01
 1 2 3 4
 1 5 8 4
 5 6 7 8
 2 3 7 6
 4 8 7 3
 1 2 6 5
ZONE NODES=8, ELEMENTS = 6, DATAPACKING=POINT, ZONETYPE=FETETRAHEDRON
  0.99911E+00  0.61424E-01  0.10006E+00
  0.98762E+00  0.61442E-01  0.10006E+00
  0.98762E+00  0.61442E-01  0.10000E+00
  0.99911E+00  0.61424E-01  0.10000E+00
  0.99911E+00  0.61198E-01  0.10006E+00
  0.98762E+00  0.61215E-01  0.10006E+00
  0.98762E+00  0.61215E-01  0.10000E+00
  0.99911E+00  0.61198E-01  0.10000E+00
 1 2 3 4
 1 5 8 4
 5 6 7 8
 2 3 7 6
 4 8 7 3
 1 2 6 5
ZONE NODES=8, ELEMENTS = 6, DATAPACKING=POINT, ZONETYPE=FETETRAHEDRON
  0.99911E+00  0.61198E-01  0.10006E+00
  0.98762E+00  0.61215E-01  0.10006E+00
  0.98762E+00  0.61215E-01  0.10000E+00
  0.99911E+00  0.61198E-01  0.10000E+00
  0.99911E+00  0.60273E-01  0.10006E+00
  0.98762E+00  0.60291E-01  0.10006E+00
  0.98762E+00  0.60291E-01  0.10000E+00
  0.99911E+00  0.60273E-01  0.10000E+00
 1 2 3 4
 1 5 8 4
 5 6 7 8
 2 3 7 6
 4 8 7 3
 1 2 6 5
ZONE NODES=8, ELEMENTS = 6, DATAPACKING=POINT, ZONETYPE=FETETRAHEDRON
  0.99911E+00  0.60273E-01  0.10006E+00
  0.98762E+00  0.60291E-01  0.10006E+00
  0.98762E+00  0.60291E-01  0.10000E+00