TITLE = "Mask Points"
VARIABLES = "x","y","z"
ZONE I=11736,J=2,K=1, DATAPACKING=POINT
  0.11093E-01  0.46048E-01  0.34716E-02
  0.11093E-01  0.42550E-01  0.34716E-02
  0.11093E-01  0.46048E-01  0.16500E-01
  0.11093E-01  0.42550E-01  0.16500E-01
  0.11093E-01  0.46048E-01  0.33500E-01
  0.11093E-01  0.42550E-01  0.33500E-01
  0.11093E-01  0.46048E-01  0.46528E-01
  0.11093E-01  0.42550E-01  0.46528E-01
  0.11093E-01  0.46048E-01  0.53472E-01
  0.11093E-01  0.42550E-01  0.53472E-01
  0.11093E-01  0.46048E-01  0.66500E-01
  0.11093E-01  0.42550E-01  0.66500E-01
  0.11093E-01  0.46048E-01  0.83500E-01
  0.11093E-01  0.42550E-01  0.83500E-01
  0.11093E-01  0.46048E-01  0.96528E-01
  0.11093E-01  0.42550E-01  0.96528E-01
  0.23487E-02  0.59471E-01  0.34716E-02
  0.23487E-02  0.55973E-01  0.34716E-02
  0.11093E-01  0.59471E-01  0.34716E-02
  0.11093E-01  0.55973E-01  0.34716E-02
  0.11093E-01  0.51410E-01  0.34716E-02
  0.11093E-01  0.47912E-01  0.34716E-02
  0.23487E-02  0.59471E-01  0.16500E-01
  0.23487E-02  0.55973E-01  0.16500E-01
  0.11093E-01  0.59471E-01  0.16500E-01
  0.11093E-01  0.55973E-01  0.16500E-01
  0.11093E-01  0.51410E-01  0.16500E-01
  0.11093E-01  0.47912E-01  0.16500E-01
  0.23487E-02  0.59471E-01  0.33500E-01
  0.23487E-02  0.55973E-01  0.33500E-01
  0.11093E-01  0.59471E-01  0.33500E-01
  0.11093E-01  0.55973E-01  0.33500E-01
  0.11093E-01  0.51410E-01  0.33500E-01
  0.11093E-01  0.47912E-01  0.33500E-01
  0.23487E-02  0.59471E-01  0.46528E-01
  0.23487E-02  0.55973E-01  0.46528E-01
  0.11093E-01  0.59471E-01  0.46528E-01
  0.11093E-01  0.55973E-01  0.46528E-01
  0.11093E-01  0.51410E-01  0.46528E-01
  0.11093E-01  0.47912E-01  0.46528E-01
  0.23487E-02  0.59471E-01  0.53472E-01
  0.23487E-02  0.55973E-01  0.53472E-01
  0.11093E-01  0.59471E-01  0.53472E-01
  0.11093E-01  0.55973E-01  0.53472E-01
  0.11093E-01  0.51410E-01  0.53472E-01
  0.11093E-01  0.47912E-01  0.53472E-01
  0.23487E-02  0.59471E-01  0.66500E-01
  0.23487E-02  0.55973E-01  0.66500E-01
  0.11093E-01  0.59471E-01  0.66500E-01
  0.11093E-01  0.55973E-01  0.66500E-01
  0.11093E-01  0.51410E-01  0.66500E-01
  0.11093E-01  0.47912E-01  0.66500E-01
  0.23487E-02  0.59471E-01  0.83500E-01
  0.23487E-02  0.55973E-01  0.83500E-01
  0.11093E-01  0.59471E-01  0.83500E-01
  0.11093E-01  0.55973E-01  0.83500E-01
  0.11093E-01  0.51410E-01  0.83500E-01
  0.11093E-01  0.47912E-01  0.83500E-01
  0.23487E-02  0.59471E-01  0.96528E-01
  0.23487E-02  0.55973E-01  0.96528E-01
  0.11093E-01  0.59471E-01  0.96528E-01
  0.11093E-01  0.55973E-01  0.96528E-01
  0.11093E-01  0.51410E-01  0.96528E-01
  0.11093E-01  0.47912E-01  0.96528E-01
  0.23487E-02  0.64832E-01  0.34716E-02
  0.23487E-02  0.61335E-01  0.34716E-02
  0.11093E-01  0.72894E-01  0.34716E-02
  0.11093E-01  0.69396E-01  0.34716E-02
  0.11093E-01  0.64832E-01  0.34716E-02
  0.11093E-01  0.61335E-01  0.34716E-02
  0.23487E-02  0.64832E-01  0.16500E-01
  0.23487E-02  0.61335E-01  0.16500E-01
  0.11093E-01  0.72894E-01  0.16500E-01
  0.11093E-01  0.69396E-01  0.16500E-01
  0.11093E-01  0.64832E-01  0.16500E-01
  0.11093E-01  0.61335E-01  0.16500E-01
  0.23487E-02  0.64832E-01  0.33500E-01
  0.23487E-02  0.61335E-01  0.33500E-01
  0.11093E-01  0.72894E-01  0.33500E-01
  0.11093E-01  0.69396E-01  0.33500E-01
  0.11093E-01  0.64832E-01  0.33500E-01
  0.11093E-01  0.61335E-01  0.33500E-01
  0.23487E-02  0.64832E-01  0.46528E-01
  0.23487E-02  0.61335E-01  0.46528E-01
  0.11093E-01  0.72894E-01  0.46528E-01
  0.11093E-01  0.69396E-01  0.46528E-01
  0.11093E-01  0.64832E-01  0.46528E-01
  0.11093E-01  0.61335E-01  0.46528E-01
  0.23487E-02  0.64832E-01  0.53472E-01
  0.23487E-02  0.61335E-01  0.53472E-01
  0.11093E-01  0.72894E-01  0.53472E-01
  0.11093E-01  0.69396E-01  0.53472E-01
  0.11093E-01  0.64832E-01  0.53472E-01
  0.11093E-01  0.61335E-01  0.53472E-01
  0.23487E-02  0.64832E-01  0.66500E-01
  0.23487E-02  0.61335E-01  0.66500E-01
  0.11093E-01  0.72894E-01  0.66500E-01
  0.11093E-01  0.69396E-01  0.66500E-01
  0.11093E-01  0.64832E-01  0.66500E-01
  0.11093E-01  0.61335E-01  0.66500E-01
  0.23487E-02  0.64832E-01  0.83500E-01
  0.23487E-02  0.61335E-01  0.83500E-01
  0.11093E-01  0.72894E-01  0.83500E-01
  0.11093E-01  0.69396E-01  0.83500E-01
  0.11093E-01  0.64832E-01  0.83500E-01
  0.11093E-01  0.61335E-01  0.83500E-01
  0.23487E-02  0.64832E-01  0.96528E-01
  0.23487E-02  0.61335E-01  0.96528E-01
  0.11093E-01  0.72894E-01  0.96528E-01
  0.11093E-01  0.69396E-01  0.96528E-01
  0.11093E-01  0.64832E-01  0.96528E-01
  0.11093E-01  0.61335E-01  0.96528E-01
  0.11093E-01  0.74757E-01  0.34716E-02
  0.11093E-01  0.74757E-01  0.16500E-01
  0.11093E-01  0.74757E-01  0.33500E-01
  0.11093E-01  0.74757E-01  0.46528E-01
  0.11093E-01  0.74757E-01  0.53472E-01
  0.11093E-01  0.74757E-01  0.66500E-01
  0.11093E-01  0.74757E-01  0.83500E-01
  0.11093E-01  0.74757E-01  0.96528E-01
  0.35906E-01  0.32625E-01  0.34716E-02
  0.44650E-01  0.32625E-01  0.34716E-02
  0.44650E-01  0.29127E-01  0.34716E-02
  0.35906E-01  0.32625E-01  0.16500E-01
  0.44650E-01  0.32625E-01  0.16500E-01
  0.44650E-01  0.29127E-01  0.16500E-01
  0.35906E-01  0.32625E-01  0.33500E-01
  0.44650E-01  0.32625E-01  0.33500E-01
  0.44650E-01  0.29127E-01  0.33500E-01
  0.35906E-01  0.32625E-01  0.46528E-01
  0.44650E-01  0.32625E-01  0.46528E-01
  0.44650E-01  0.29127E-01  0.46528E-01
  0.35906E-01  0.32625E-01  0.53472E-01
  0.44650E-01  0.32625E-01  0.53472E-01
  0.44650E-01  0.29127E-01  0.53472E-01
  0.35906E-01  0.32625E-01  0.66500E-01
  0.44650E-01  0.32625E-01  0.66500E-01
  0.44650E-01  0.29127E-01  0.66500E-01
  0.35906E-01  0.32625E-01  0.83500E-01
  0.44650E-01  0.32625E-01  0.83500E-01
  0.44650E-01  0.29127E-01  0.83500E-01
  0.35906E-01  0.32625E-01  0.96528E-01
  0.44650E-01  0.32625E-01  0.96528E-01
  0.44650E-01  0.29127E-01  0.96528E-01
  0.15753E-01  0.46048E-01  0.34716E-02
  0.15753E-01  0.42550E-01  0.34716E-02
  0.24497E-01  0.46048E-01  0.34716E-02
  0.24497E-01  0.42550E-01  0.34716E-02
  0.24497E-01  0.37987E-01  0.34716E-02
  0.24497E-01  0.34489E-01  0.34716E-02
  0.35906E-01  0.46048E-01  0.34716E-02
  0.35906E-01  0.42550E-01  0.34716E-02
  0.35906E-01  0.37987E-01  0.34716E-02
  0.35906E-01  0.34489E-01  0.34716E-02
  0.44650E-01  0.46048E-01  0.34716E-02
  0.44650E-01  0.42550E-01  0.34716E-02
  0.44650E-01  0.37987E-01  0.34716E-02
  0.44650E-01  0.34489E-01  0.34716E-02
  0.15753E-01  0.46048E-01  0.16500E-01
  0.15753E-01  0.42550E-01  0.16500E-01
  0.24497E-01  0.46048E-01  0.16500E-01
  0.24497E-01  0.42550E-01  0.16500E-01
  0.24497E-01  0.37987E-01  0.16500E-01
  0.24497E-01  0.34489E-01  0.16500E-01
  0.35906E-01  0.46048E-01  0.16500E-01
  0.35906E-01  0.42550E-01  0.16500E-01
  0.35906E-01  0.37987E-01  0.16500E-01
  0.35906E-01  0.34489E-01  0.16500E-01
  0.44650E-01  0.46048E-01  0.16500E-01
  0.44650E-01  0.42550E-01  0.16500E-01
  0.44650E-01  0.37987E-01  0.16500E-01
  0.44650E-01  0.34489E-01  0.16500E-01
  0.15753E-01  0.46048E-01  0.33500E-01
  0.15753E-01  0.42550E-01  0.33500E-01
  0.24497E-01  0.46048E-01  0.33500E-01
  0.24497E-01  0.42550E-01  0.33500E-01
  0.24497E-01  0.37987E-01  0.33500E-01
  0.24497E-01  0.34489E-01  0.33500E-01
  0.35906E-01  0.46048E-01  0.33500E-01
  0.35906E-01  0.42550E-01  0.33500E-01
  0.35906E-01  0.37987E-01  0.33500E-01
  0.35906E-01  0.34489E-01  0.33500E-01
  0.44650E-01  0.46048E-01  0.33500E-01
  0.44650E-01  0.42550E-01  0.33500E-01
  0.44650E-01  0.37987E-01  0.33500E-01
  0.44650E-01  0.34489E-01  0.33500E-01
  0.15753E-01  0.46048E-01  0.46528E-01
  0.15753E-01  0.42550E-01  0.46528E-01
  0.24497E-01  0.46048E-01  0.46528E-01
  0.24497E-01  0.42550E-01  0.46528E-01
  0.24497E-01  0.37987E-01  0.46528E-01
  0.24497E-01  0.34489E-01  0.46528E-01
  0.35906E-01  0.46048E-01  0.46528E-01
  0.35906E-01  0.42550E-01  0.46528E-01
  0.35906E-01  0.37987E-01  0.46528E-01
  0.35906E-01  0.34489E-01  0.46528E-01
  0.44650E-01  0.46048E-01  0.46528E-01
  0.44650E-01  0.42550E-01  0.46528E-01
  0.44650E-01  0.37987E-01  0.46528E-01
  0.44650E-01  0.34489E-01  0.46528E-01
  0.15753E-01  0.46048E-01  0.53472E-01
  0.15753E-01  0.42550E-01  0.53472E-01
  0.24497E-01  0.46048E-01  0.53472E-01
  0.24497E-01  0.42550E-01  0.53472E-01
  0.24497E-01  0.37987E-01  0.53472E-01
  0.24497E-01  0.34489E-01  0.53472E-01
  0.35906E-01  0.46048E-01  0.53472E-01
  0.35906E-01  0.42550E-01  0.53472E-01
  0.35906E-01  0.37987E-01  0.53472E-01
  0.35906E-01  0.34489E-01  0.53472E-01
  0.44650E-01  0.46048E-01  0.53472E-01
  0.44650E-01  0.42550E-01  0.53472E-01
  0.44650E-01  0.37987E-01  0.53472E-01
  0.44650E-01  0.34489E-01  0.53472E-01
  0.15753E-01  0.46048E-01  0.66500E-01
  0.15753E-01  0.42550E-01  0.66500E-01
  0.24497E-01  0.46048E-01  0.66500E-01
  0.24497E-01  0.42550E-01  0.66500E-01
  0.24497E-01  0.37987E-01  0.66500E-01
  0.24497E-01  0.34489E-01  0.66500E-01
  0.35906E-01  0.46048E-01  0.66500E-01
  0.35906E-01  0.42550E-01  0.66500E-01
  0.35906E-01  0.37987E-01  0.66500E-01
  0.35906E-01  0.34489E-01  0.66500E-01
  0.44650E-01  0.46048E-01  0.66500E-01
  0.44650E-01  0.42550E-01  0.66500E-01
  0.44650E-01  0.37987E-01  0.66500E-01
  0.44650E-01  0.34489E-01  0.66500E-01
  0.15753E-01  0.46048E-01  0.83500E-01
  0.15753E-01  0.42550E-01  0.83500E-01
  0.24497E-01  0.46048E-01  0.83500E-01
  0.24497E-01  0.42550E-01  0.83500E-01
  0.24497E-01  0.37987E-01  0.83500E-01
  0.24497E-01  0.34489E-01  0.83500E-01
  0.35906E-01  0.46048E-01  0.83500E-01
  0.35906E-01  0.42550E-01  0.83500E-01
  0.35906E-01  0.37987E-01  0.83500E-01
  0.35906E-01  0.34489E-01  0.83500E-01
  0.44650E-01  0.46048E-01  0.83500E-01
  0.44650E-01  0.42550E-01  0.83500E-01
  0.44650E-01  0.37987E-01  0.83500E-01
  0.44650E-01  0.34489E-01  0.83500E-01
  0.15753E-01  0.46048E-01  0.96528E-01
  0.15753E-01  0.42550E-01  0.96528E-01
  0.24497E-01  0.46048E-01  0.96528E-01
  0.24497E-01  0.42550E-01  0.96528E-01
  0.24497E-01  0.37987E-01  0.96528E-01
  0.24497E-01  0.34489E-01  0.96528E-01
  0.35906E-01  0.46048E-01  0.96528E-01
  0.35906E-01  0.42550E-01  0.96528E-01
  0.35906E-01  0.37987E-01  0.96528E-01
  0.35906E-01  0.34489E-01  0.96528E-01
  0.44650E-01  0.46048E-01  0.96528E-01
  0.44650E-01  0.42550E-01  0.96528E-01
  0.44650E-01  0.37987E-01  0.96528E-01
  0.44650E-01  0.34489E-01  0.96528E-01
  0.15753E-01  0.59471E-01  0.34716E-02
  0.15753E-01  0.55973E-01  0.34716E-02
  0.15753E-01  0.51410E-01  0.34716E-02
  0.15753E-01  0.47912E-01  0.34716E-02
  0.24497E-01  0.59471E-01  0.34716E-02
  0.24497E-01  0.55973E-01  0.34716E-02
  0.24497E-01  0.51410E-01  0.34716E-02
  0.24497E-01  0.47912E-01  0.34716E-02
  0.35906E-01  0.59471E-01  0.34716E-02
  0.35906E-01  0.55973E-01  0.34716E-02
  0.35906E-01  0.51410E-01  0.34716E-02
  0.35906E-01  0.47912E-01  0.34716E-02
  0.44650E-01  0.59471E-01  0.34716E-02
  0.44650E-01  0.55973E-01  0.34716E-02
  0.44650E-01  0.51410E-01  0.34716E-02
  0.44650E-01  0.47912E-01  0.34716E-02
  0.15753E-01  0.59471E-01  0.16500E-01
  0.15753E-01  0.55973E-01  0.16500E-01
  0.15753E-01  0.51410E-01  0.16500E-01
  0.15753E-01  0.47912E-01  0.16500E-01
  0.24497E-01  0.59471E-01  0.16500E-01
  0.24497E-01  0.55973E-01  0.16500E-01
  0.24497E-01  0.51410E-01  0.16500E-01
  0.24497E-01  0.47912E-01  0.16500E-01
  0.35906E-01  0.59471E-01  0.16500E-01
  0.35906E-01  0.55973E-01  0.16500E-01
  0.35906E-01  0.51410E-01  0.16500E-01
  0.35906E-01  0.47912E-01  0.16500E-01
  0.44650E-01  0.59471E-01  0.16500E-01
  0.44650E-01  0.55973E-01  0.16500E-01
  0.44650E-01  0.51410E-01  0.16500E-01
  0.44650E-01  0.47912E-01  0.16500E-01
  0.15753E-01  0.59471E-01  0.33500E-01
  0.15753E-01  0.55973E-01  0.33500E-01
  0.15753E-01  0.51410E-01  0.33500E-01
  0.15753E-01  0.47912E-01  0.33500E-01
  0.24497E-01  0.59471E-01  0.33500E-01
  0.24497E-01  0.55973E-01  0.33500E-01
  0.24497E-01  0.51410E-01  0.33500E-01
  0.24497E-01  0.47912E-01  0.33500E-01
  0.35906E-01  0.59471E-01  0.33500E-01
  0.35906E-01  0.55973E-01  0.33500E-01
  0.35906E-01  0.51410E-01  0.33500E-01
  0.35906E-01  0.47912E-01  0.33500E-01
  0.44650E-01  0.59471E-01  0.33500E-01
  0.44650E-01  0.55973E-01  0.33500E-01
  0.44650E-01  0.51410E-01  0.33500E-01
  0.44650E-01  0.47912E-01  0.33500E-01
  0.15753E-01  0.59471E-01  0.46528E-01
  0.15753E-01  0.55973E-01  0.46528E-01
  0.15753E-01  0.51410E-01  0.46528E-01
  0.15753E-01  0.47912E-01  0.46528E-01
  0.24497E-01  0.59471E-01  0.46528E-01
  0.24497E-01  0.55973E-01  0.46528E-01
  0.24497E-01  0.51410E-01  0.46528E-01
  0.24497E-01  0.47912E-01  0.46528E-01
  0.35906E-01  0.59471E-01  0.46528E-01
  0.35906E-01  0.55973E-01  0.46528E-01
  0.35906E-01  0.51410E-01  0.46528E-01
  0.35906E-01  0.47912E-01  0.46528E-01
  0.44650E-01  0.59471E-01  0.46528E-01
  0.44650E-01  0.55973E-01  0.46528E-01
  0.44650E-01  0.51410E-01  0.46528E-01
  0.44650E-01  0.47912E-01  0.46528E-01
  0.15753E-01  0.59471E-01  0.53472E-01
  0.15753E-01  0.55973E-01  0.53472E-01
  0.15753E-01  0.51410E-01  0.53472E-01
  0.15753E-01  0.47912E-01  0.53472E-01
  0.24497E-01  0.59471E-01  0.53472E-01
  0.24497E-01  0.55973E-01  0.53472E-01
  0.24497E-01  0.51410E-01  0.53472E-01
  0.24497E-01  0.47912E-01  0.53472E-01
  0.35906E-01  0.59471E-01  0.53472E-01
  0.35906E-01  0.55973E-01  0.53472E-01
  0.35906E-01  0.51410E-01  0.53472E-01
  0.35906E-01  0.47912E-01  0.53472E-01
  0.44650E-01  0.59471E-01  0.53472E-01
  0.44650E-01  0.55973E-01  0.53472E-01
  0.44650E-01  0.51410E-01  0.53472E-01
  0.44650E-01  0.47912E-01  0.53472E-01
  0.15753E-01  0.59471E-01  0.66500E-01
  0.15753E-01  0.55973E-01  0.66500E-01
  0.15753E-01  0.51410E-01  0.66500E-01
  0.15753E-01  0.47912E-01  0.66500E-01
  0.24497E-01  0.59471E-01  0.66500E-01
  0.24497E-01  0.55973E-01  0.66500E-01
  0.24497E-01  0.51410E-01  0.66500E-01
  0.24497E-01  0.47912E-01  0.66500E-01
  0.35906E-01  0.59471E-01  0.66500E-01
  0.35906E-01  0.55973E-01  0.66500E-01
  0.35906E-01  0.51410E-01  0.66500E-01
  0.35906E-01  0.47912E-01  0.66500E-01
  0.44650E-01  0.59471E-01  0.66500E-01
  0.44650E-01  0.55973E-01  0.66500E-01
  0.44650E-01  0.51410E-01  0.66500E-01
  0.44650E-01  0.47912E-01  0.66500E-01
  0.15753E-01  0.59471E-01  0.83500E-01
  0.15753E-01  0.55973E-01  0.83500E-01
  0.15753E-01  0.51410E-01  0.83500E-01
  0.15753E-01  0.47912E-01  0.83500E-01
  0.24497E-01  0.59471E-01  0.83500E-01
  0.24497E-01  0.55973E-01  0.83500E-01
  0.24497E-01  0.51410E-01  0.83500E-01
  0.24497E-01  0.47912E-01  0.83500E-01
  0.35906E-01  0.59471E-01  0.83500E-01
  0.35906E-01  0.55973E-01  0.83500E-01
  0.35906E-01  0.51410E-01  0.83500E-01
  0.35906E-01  0.47912E-01  0.83500E-01
  0.44650E-01  0.59471E-01  0.83500E-01
  0.44650E-01  0.55973E-01  0.83500E-01
  0.44650E-01  0.51410E-01  0.83500E-01
  0.44650E-01  0.47912E-01  0.83500E-01
  0.15753E-01  0.59471E-01  0.96528E-01
  0.15753E-01  0.55973E-01  0.96528E-01
  0.15753E-01  0.51410E-01  0.96528E-01
  0.15753E-01  0.47912E-01  0.96528E-01
  0.24497E-01  0.59471E-01  0.96528E-01
  0.24497E-01  0.55973E-01  0.96528E-01
  0.24497E-01  0.51410E-01  0.96528E-01
  0.24497E-01  0.47912E-01  0.96528E-01
  0.35906E-01  0.59471E-01  0.96528E-01
  0.35906E-01  0.55973E-01  0.96528E-01
  0.35906E-01  0.51410E-01  0.96528E-01
  0.35906E-01  0.47912E-01  0.96528E-01
  0.44650E-01  0.59471E-01  0.96528E-01
  0.44650E-01  0.55973E-01  0.96528E-01
  0.44650E-01  0.51410E-01  0.96528E-01
  0.44650E-01  0.47912E-01  0.96528E-01
  0.15753E-01  0.72894E-01  0.34716E-02
  0.15753E-01  0.69396E-01  0.34716E-02
  0.15753E-01  0.64832E-01  0.34716E-02
  0.15753E-01  0.61335E-01  0.34716E-02
  0.24497E-01  0.72894E-01  0.34716E-02
  0.24497E-01  0.69396E-01  0.34716E-02
  0.24497E-01  0.64832E-01  0.34716E-02
  0.24497E-01  0.61335E-01  0.34716E-02
  0.35906E-01  0.72894E-01  0.34716E-02
  0.35906E-01  0.69396E-01  0.34716E-02
  0.35906E-01  0.64832E-01  0.34716E-02
  0.35906E-01  0.61335E-01  0.34716E-02
  0.44650E-01  0.72894E-01  0.34716E-02
  0.44650E-01  0.69396E-01  0.34716E-02
  0.44650E-01  0.64832E-01  0.34716E-02
  0.44650E-01  0.61335E-01  0.34716E-02
  0.15753E-01  0.72894E-01  0.16500E-01
  0.15753E-01  0.69396E-01  0.16500E-01
  0.15753E-01  0.64832E-01  0.16500E-01
  0.15753E-01  0.61335E-01  0.16500E-01
  0.24497E-01  0.72894E-01  0.16500E-01
  0.24497E-01  0.69396E-01  0.16500E-01
  0.24497E-01  0.64832E-01  0.16500E-01
  0.24497E-01  0.61335E-01  0.16500E-01
  0.35906E-01  0.72894E-01  0.16500E-01
  0.35906E-01  0.69396E-01  0.16500E-01
  0.35906E-01  0.64832E-01  0.16500E-01
  0.35906E-01  0.61335E-01  0.16500E-01
  0.44650E-01  0.72894E-01  0.16500E-01
  0.44650E-01  0.69396E-01  0.16500E-01
  0.44650E-01  0.64832E-01  0.16500E-01
  0.44650E-01  0.61335E-01  0.16500E-01
  0.15753E-01  0.72894E-01  0.33500E-01
  0.15753E-01  0.69396E-01  0.33500E-01
  0.15753E-01  0.64832E-01  0.33500E-01
  0.15753E-01  0.61335E-01  0.33500E-01
  0.24497E-01  0.72894E-01  0.33500E-01
  0.24497E-01  0.69396E-01  0.33500E-01
  0.24497E-01  0.64832E-01  0.33500E-01
  0.24497E-01  0.61335E-01  0.33500E-01
  0.35906E-01  0.72894E-01  0.33500E-01
  0.35906E-01  0.69396E-01  0.33500E-01
  0.35906E-01  0.64832E-01  0.33500E-01
  0.35906E-01  0.61335E-01  0.33500E-01
  0.44650E-01  0.72894E-01  0.33500E-01
  0.44650E-01  0.69396E-01  0.33500E-01
  0.44650E-01  0.64832E-01  0.33500E-01
  0.44650E-01  0.61335E-01  0.33500E-01
  0.15753E-01  0.72894E-01  0.46528E-01
  0.15753E-01  0.69396E-01  0.46528E-01
  0.15753E-01  0.64832E-01  0.46528E-01
  0.15753E-01  0.61335E-01  0.46528E-01
  0.24497E-01  0.72894E-01  0.46528E-01
  0.24497E-01  0.69396E-01  0.46528E-01
  0.24497E-01  0.64832E-01  0.46528E-01
  0.24497E-01  0.61335E-01  0.46528E-01
  0.35906E-01  0.72894E-01  0.46528E-01
  0.35906E-01  0.69396E-01  0.46528E-01
  0.35906E-01  0.64832E-01  0.46528E-01
  0.35906E-01  0.61335E-01  0.46528E-01
  0.44650E-01  0.72894E-01  0.46528E-01
  0.44650E-01  0.69396E-01  0.46528E-01
  0.44650E-01  0.64832E-01  0.46528E-01
  0.44650E-01  0.61335E-01  0.46528E-01
  0.15753E-01  0.72894E-01  0.53472E-01
  0.15753E-01  0.69396E-01  0.53472E-01
  0.15753E-01  0.64832E-01  0.53472E-01
  0.15753E-01  0.61335E-01  0.53472E-01
  0.24497E-01  0.72894E-01  0.53472E-01
  0.24497E-01  0.69396E-01  0.53472E-01
  0.24497E-01  0.64832E-01  0.53472E-01
  0.24497E-01  0.61335E-01  0.53472E-01
  0.35906E-01  0.72894E-01  0.53472E-01
  0.35906E-01  0.69396E-01  0.53472E-01
  0.35906E-01  0.64832E-01  0.53472E-01
  0.35906E-01  0.61335E-01  0.53472E-01
  0.44650E-01  0.72894E-01  0.53472E-01
  0.44650E-01  0.69396E-01  0.53472E-01
  0.44650E-01  0.64832E-01  0.53472E-01
  0.44650E-01  0.61335E-01  0.53472E-01
  0.15753E-01  0.72894E-01  0.66500E-01
  0.15753E-01  0.69396E-01  0.66500E-01
  0.15753E-01  0.64832E-01  0.66500E-01
  0.15753E-01  0.61335E-01  0.66500E-01
  0.24497E-01  0.72894E-01  0.66500E-01
  0.24497E-01  0.69396E-01  0.66500E-01
  0.24497E-01  0.64832E-01  0.66500E-01
  0.24497E-01  0.61335E-01  0.66500E-01
  0.35906E-01  0.72894E-01  0.66500E-01
  0.35906E-01  0.69396E-01  0.66500E-01
  0.35906E-01  0.64832E-01  0.66500E-01
  0.35906E-01  0.61335E-01  0.66500E-01
  0.44650E-01  0.72894E-01  0.66500E-01
  0.44650E-01  0.69396E-01  0.66500E-01
  0.44650E-01  0.64832E-01  0.66500E-01
  0.44650E-01  0.61335E-01  0.66500E-01
  0.15753E-01  0.72894E-01  0.83500E-01
  0.15753E-01  0.69396E-01  0.83500E-01
  0.15753E-01  0.64832E-01  0.83500E-01
  0.15753E-01  0.61335E-01  0.83500E-01
  0.24497E-01  0.72894E-01  0.83500E-01
  0.24497E-01  0.69396E-01  0.83500E-01
  0.24497E-01  0.64832E-01  0.83500E-01
  0.24497E-01  0.61335E-01  0.83500E-01
  0.35906E-01  0.72894E-01  0.83500E-01
  0.35906E-01  0.69396E-01  0.83500E-01
  0.35906E-01  0.64832E-01  0.83500E-01
  0.35906E-01  0.61335E-01  0.83500E-01
  0.44650E-01  0.72894E-01  0.83500E-01
  0.44650E-01  0.69396E-01  0.83500E-01
  0.44650E-01  0.64832E-01  0.83500E-01
  0.44650E-01  0.61335E-01  0.83500E-01
  0.15753E-01  0.72894E-01  0.96528E-01
  0.15753E-01  0.69396E-01  0.96528E-01
  0.15753E-01  0.64832E-01  0.96528E-01
  0.15753E-01  0.61335E-01  0.96528E-01
  0.24497E-01  0.72894E-01  0.96528E-01
  0.24497E-01  0.69396E-01  0.96528E-01
  0.24497E-01  0.64832E-01  0.96528E-01
  0.24497E-01  0.61335E-01  0.96528E-01
  0.35906E-01  0.72894E-01  0.96528E-01
  0.35906E-01  0.69396E-01  0.96528E-01
  0.35906E-01  0.64832E-01  0.96528E-01
  0.35906E-01  0.61335E-01  0.96528E-01
  0.44650E-01  0.72894E-01  0.96528E-01
  0.44650E-01  0.69396E-01  0.96528E-01
  0.44650E-01  0.64832E-01  0.96528E-01
  0.44650E-01  0.61335E-01  0.96528E-01
  0.15753E-01  0.78255E-01  0.34716E-02
  0.15753E-01  0.74757E-01  0.34716E-02
  0.24497E-01  0.82819E-01  0.34716E-02
  0.24497E-01  0.78255E-01  0.34716E-02
  0.24497E-01  0.74757E-01  0.34716E-02
  0.35906E-01  0.86316E-01  0.34716E-02
  0.35906E-01  0.82819E-01  0.34716E-02
  0.35906E-01  0.78255E-01  0.34716E-02
  0.35906E-01  0.74757E-01  0.34716E-02
  0.44650E-01  0.86316E-01  0.34716E-02
  0.44650E-01  0.82819E-01  0.34716E-02
  0.44650E-01  0.78255E-01  0.34716E-02
  0.44650E-01  0.74757E-01  0.34716E-02
  0.15753E-01  0.78255E-01  0.16500E-01
  0.15753E-01  0.74757E-01  0.16500E-01
  0.24497E-01  0.82819E-01  0.16500E-01
  0.24497E-01  0.78255E-01  0.16500E-01
  0.24497E-01  0.74757E-01  0.16500E-01
  0.35906E-01  0.86316E-01  0.16500E-01
  0.35906E-01  0.82819E-01  0.16500E-01
  0.35906E-01  0.78255E-01  0.16500E-01
  0.35906E-01  0.74757E-01  0.16500E-01
  0.44650E-01  0.86316E-01  0.16500E-01
  0.44650E-01  0.82819E-01  0.16500E-01
  0.44650E-01  0.78255E-01  0.16500E-01
  0.44650E-01  0.74757E-01  0.16500E-01
  0.15753E-01  0.78255E-01  0.33500E-01
  0.15753E-01  0.74757E-01  0.33500E-01
  0.24497E-01  0.82819E-01  0.33500E-01
  0.24497E-01  0.78255E-01  0.33500E-01
  0.24497E-01  0.74757E-01  0.33500E-01
  0.35906E-01  0.86316E-01  0.33500E-01
  0.35906E-01  0.82819E-01  0.33500E-01
  0.35906E-01  0.78255E-01  0.33500E-01
  0.35906E-01  0.74757E-01  0.33500E-01
  0.44650E-01  0.86316E-01  0.33500E-01
  0.44650E-01  0.82819E-01  0.33500E-01
  0.44650E-01  0.78255E-01  0.33500E-01
  0.44650E-01  0.74757E-01  0.33500E-01
  0.15753E-01  0.78255E-01  0.46528E-01
  0.15753E-01  0.74757E-01  0.46528E-01
  0.24497E-01  0.82819E-01  0.46528E-01
  0.24497E-01  0.78255E-01  0.46528E-01
  0.24497E-01  0.74757E-01  0.46528E-01
  0.35906E-01  0.86316E-01  0.46528E-01
  0.35906E-01  0.82819E-01  0.46528E-01
  0.35906E-01  0.78255E-01  0.46528E-01
  0.35906E-01  0.74757E-01  0.46528E-01
  0.44650E-01  0.86316E-01  0.46528E-01
  0.44650E-01  0.82819E-01  0.46528E-01
  0.44650E-01  0.78255E-01  0.46528E-01
  0.44650E-01  0.74757E-01  0.46528E-01
  0.15753E-01  0.78255E-01  0.53472E-01
  0.15753E-01  0.74757E-01  0.53472E-01
  0.24497E-01  0.82819E-01  0.53472E-01
  0.24497E-01  0.78255E-01  0.53472E-01
  0.24497E-01  0.74757E-01  0.53472E-01
  0.35906E-01  0.86316E-01  0.53472E-01
  0.35906E-01  0.82819E-01  0.53472E-01
  0.35906E-01  0.78255E-01  0.53472E-01
  0.35906E-01  0.74757E-01  0.53472E-01
  0.44650E-01  0.86316E-01  0.53472E-01
  0.44650E-01  0.82819E-01  0.53472E-01
  0.44650E-01  0.78255E-01  0.53472E-01
  0.44650E-01  0.74757E-01  0.53472E-01
  0.15753E-01  0.78255E-01  0.66500E-01
  0.15753E-01  0.74757E-01  0.66500E-01
  0.24497E-01  0.82819E-01  0.66500E-01
  0.24497E-01  0.78255E-01  0.66500E-01
  0.24497E-01  0.74757E-01  0.66500E-01
  0.35906E-01  0.86316E-01  0.66500E-01
  0.35906E-01  0.82819E-01  0.66500E-01
  0.35906E-01  0.78255E-01  0.66500E-01
  0.35906E-01  0.74757E-01  0.66500E-01
  0.44650E-01  0.86316E-01  0.66500E-01
  0.44650E-01  0.82819E-01  0.66500E-01
  0.44650E-01  0.78255E-01  0.66500E-01
  0.44650E-01  0.74757E-01  0.66500E-01
  0.15753E-01  0.78255E-01  0.83500E-01
  0.15753E-01  0.74757E-01  0.83500E-01
  0.24497E-01  0.82819E-01  0.83500E-01
  0.24497E-01  0.78255E-01  0.83500E-01
  0.24497E-01  0.74757E-01  0.83500E-01
  0.35906E-01  0.86316E-01  0.83500E-01
  0.35906E-01  0.82819E-01  0.83500E-01
  0.35906E-01  0.78255E-01  0.83500E-01
  0.35906E-01  0.74757E-01  0.83500E-01
  0.44650E-01  0.86316E-01  0.83500E-01
  0.44650E-01  0.82819E-01  0.83500E-01
  0.44650E-01  0.78255E-01  0.83500E-01
  0.44650E-01  0.74757E-01  0.83500E-01
  0.15753E-01  0.78255E-01  0.96528E-01
  0.15753E-01  0.74757E-01  0.96528E-01
  0.24497E-01  0.82819E-01  0.96528E-01
  0.24497E-01  0.78255E-01  0.96528E-01
  0.24497E-01  0.74757E-01  0.96528E-01
  0.35906E-01  0.86316E-01  0.96528E-01
  0.35906E-01  0.82819E-01  0.96528E-01
  0.35906E-01  0.78255E-01  0.96528E-01
  0.35906E-01  0.74757E-01  0.96528E-01
  0.44650E-01  0.86316E-01  0.96528E-01
  0.44650E-01  0.82819E-01  0.96528E-01
  0.44650E-01  0.78255E-01  0.96528E-01
  0.44650E-01  0.74757E-01  0.96528E-01
  0.35906E-01  0.88180E-01  0.34716E-02
  0.44650E-01  0.91678E-01  0.34716E-02
  0.44650E-01  0.88180E-01  0.34716E-02
  0.35906E-01  0.88180E-01  0.16500E-01
  0.44650E-01  0.91678E-01  0.16500E-01
  0.44650E-01  0.88180E-01  0.16500E-01
  0.35906E-01  0.88180E-01  0.33500E-01
  0.44650E-01  0.91678E-01  0.33500E-01
  0.44650E-01  0.88180E-01  0.33500E-01
  0.35906E-01  0.88180E-01  0.46528E-01
  0.44650E-01  0.91678E-01  0.46528E-01
  0.44650E-01  0.88180E-01  0.46528E-01
  0.35906E-01  0.88180E-01  0.53472E-01
  0.44650E-01  0.91678E-01  0.53472E-01
  0.44650E-01  0.88180E-01  0.53472E-01
  0.35906E-01  0.88180E-01  0.66500E-01
  0.44650E-01  0.91678E-01  0.66500E-01
  0.44650E-01  0.88180E-01  0.66500E-01
  0.35906E-01  0.88180E-01  0.83500E-01
  0.44650E-01  0.91678E-01  0.83500E-01
  0.44650E-01  0.88180E-01  0.83500E-01
  0.35906E-01  0.88180E-01  0.96528E-01
  0.44650E-01  0.91678E-01  0.96528E-01
  0.44650E-01  0.88180E-01  0.96528E-01
  0.78207E-01  0.19202E-01  0.34716E-02
  0.78207E-01  0.19202E-01  0.16500E-01
  0.78207E-01  0.19202E-01  0.33500E-01
  0.78207E-01  0.19202E-01  0.46528E-01
  0.78207E-01  0.19202E-01  0.53472E-01
  0.78207E-01  0.19202E-01  0.66500E-01
  0.78207E-01  0.19202E-01  0.83500E-01
  0.78207E-01  0.19202E-01  0.96528E-01
  0.49310E-01  0.32625E-01  0.34716E-02
  0.49310E-01  0.29127E-01  0.34716E-02
  0.58054E-01  0.32625E-01  0.34716E-02
  0.58054E-01  0.29127E-01  0.34716E-02
  0.58054E-01  0.24564E-01  0.34716E-02
  0.69463E-01  0.32625E-01  0.34716E-02
  0.69463E-01  0.29127E-01  0.34716E-02
  0.69463E-01  0.24564E-01  0.34716E-02
  0.69463E-01  0.21066E-01  0.34716E-02
  0.78207E-01  0.32625E-01  0.34716E-02
  0.78207E-01  0.29127E-01  0.34716E-02
  0.78207E-01  0.24564E-01  0.34716E-02
  0.78207E-01  0.21066E-01  0.34716E-02
  0.49310E-01  0.32625E-01  0.16500E-01
  0.49310E-01  0.29127E-01  0.16500E-01
  0.58054E-01  0.32625E-01  0.16500E-01
  0.58054E-01  0.29127E-01  0.16500E-01
  0.58054E-01  0.24564E-01  0.16500E-01
  0.69463E-01  0.32625E-01  0.16500E-01
  0.69463E-01  0.29127E-01  0.16500E-01
  0.69463E-01  0.24564E-01  0.16500E-01
  0.69463E-01  0.21066E-01  0.16500E-01
  0.78207E-01  0.32625E-01  0.16500E-01
  0.78207E-01  0.29127E-01  0.16500E-01
  0.78207E-01  0.24564E-01  0.16500E-01
  0.78207E-01  0.21066E-01  0.16500E-01
  0.49310E-01  0.32625E-01  0.33500E-01
  0.49310E-01  0.29127E-01  0.33500E-01
  0.58054E-01  0.32625E-01  0.33500E-01
  0.58054E-01  0.29127E-01  0.33500E-01
  0.58054E-01  0.24564E-01  0.33500E-01
  0.69463E-01  0.32625E-01  0.33500E-01
  0.69463E-01  0.29127E-01  0.33500E-01
  0.69463E-01  0.24564E-01  0.33500E-01
  0.69463E-01  0.21066E-01  0.33500E-01
  0.78207E-01  0.32625E-01  0.33500E-01
  0.78207E-01  0.29127E-01  0.33500E-01
  0.78207E-01  0.24564E-01  0.33500E-01
  0.78207E-01  0.21066E-01  0.33500E-01
  0.49310E-01  0.32625E-01  0.46528E-01
  0.49310E-01  0.29127E-01  0.46528E-01
  0.58054E-01  0.32625E-01  0.46528E-01
  0.58054E-01  0.29127E-01  0.46528E-01
  0.58054E-01  0.24564E-01  0.46528E-01
  0.69463E-01  0.32625E-01  0.46528E-01
  0.69463E-01  0.29127E-01  0.46528E-01
  0.69463E-01  0.24564E-01  0.46528E-01
  0.69463E-01  0.21066E-01  0.46528E-01
  0.78207E-01  0.32625E-01  0.46528E-01
  0.78207E-01  0.29127E-01  0.46528E-01
  0.78207E-01  0.24564E-01  0.46528E-01
  0.78207E-01  0.21066E-01  0.46528E-01
  0.49310E-01  0.32625E-01  0.53472E-01
  0.49310E-01  0.29127E-01  0.53472E-01
  0.58054E-01  0.32625E-01  0.53472E-01
  0.58054E-01  0.29127E-01  0.53472E-01
  0.58054E-01  0.24564E-01  0.53472E-01
  0.69463E-01  0.32625E-01  0.53472E-01
  0.69463E-01  0.29127E-01  0.53472E-01
  0.69463E-01  0.24564E-01  0.53472E-01
  0.69463E-01  0.21066E-01  0.53472E-01
  0.78207E-01  0.32625E-01  0.53472E-01
  0.78207E-01  0.29127E-01  0.53472E-01
  0.78207E-01  0.24564E-01  0.53472E-01
  0.78207E-01  0.21066E-01  0.53472E-01
  0.49310E-01  0.32625E-01  0.66500E-01
  0.49310E-01  0.29127E-01  0.66500E-01
  0.58054E-01  0.32625E-01  0.66500E-01
  0.58054E-01  0.29127E-01  0.66500E-01
  0.58054E-01  0.24564E-01  0.66500E-01
  0.69463E-01  0.32625E-01  0.66500E-01
  0.69463E-01  0.29127E-01  0.66500E-01
  0.69463E-01  0.24564E-01  0.66500E-01
  0.69463E-01  0.21066E-01  0.66500E-01
  0.78207E-01  0.32625E-01  0.66500E-01
  0.78207E-01  0.29127E-01  0.66500E-01
  0.78207E-01  0.24564E-01  0.66500E-01
  0.78207E-01  0.21066E-01  0.66500E-01
  0.49310E-01  0.32625E-01  0.83500E-01
  0.49310E-01  0.29127E-01  0.83500E-01
  0.58054E-01  0.32625E-01  0.83500E-01
  0.58054E-01  0.29127E-01  0.83500E-01
  0.58054E-01  0.24564E-01  0.83500E-01
  0.69463E-01  0.32625E-01  0.83500E-01
  0.69463E-01  0.29127E-01  0.83500E-01
  0.69463E-01  0.24564E-01  0.83500E-01
  0.69463E-01  0.21066E-01  0.83500E-01
  0.78207E-01  0.32625E-01  0.83500E-01
  0.78207E-01  0.29127E-01  0.83500E-01
  0.78207E-01  0.24564E-01  0.83500E-01
  0.78207E-01  0.21066E-01  0.83500E-01
  0.49310E-01  0.32625E-01  0.96528E-01
  0.49310E-01  0.29127E-01  0.96528E-01
  0.58054E-01  0.32625E-01  0.96528E-01
  0.58054E-01  0.29127E-01  0.96528E-01
  0.58054E-01  0.24564E-01  0.96528E-01
  0.69463E-01  0.32625E-01  0.96528E-01
  0.69463E-01  0.29127E-01  0.96528E-01
  0.69463E-01  0.24564E-01  0.96528E-01