# vtk DataFile Version 2.0
sampleSurface
ASCII
DATASET POLYDATA
POINTS 49025 float
-356.5 0 0
-356.5 0 1.75503468513
-356.5 -1.75953948498 0
-356.5 1.75953948498 0
-356.5 -1.75953948498 1.75503468513
-356.5 1.75953948498 1.75503468513
-356.5 0 3.51006937027
-356.5 -3.51907896996 0
-356.5 3.51907896996 0
-356.5 -1.75953948498 3.51006937027
-356.5 1.75953948498 3.51006937027
-356.5 -3.51907896996 1.75503468513
-356.5 3.51907896996 1.75503468513
-356.5 -3.51907896996 3.51006937027
-356.5 3.51907896996 3.51006937027
-356.5 0 5.26510429382
-356.5 -5.27861833572 0
-356.5 5.27861833572 0
-356.5 -1.75953948498 5.26510429382
-356.5 1.75953948498 5.26510429382
-356.5 -5.27861833572 1.75503468513
-356.5 5.27861833572 1.75503468513
-356.5 -3.51907896996 5.26510429382
-356.5 3.51907896996 5.26510429382
-356.5 -5.27861833572 3.51006937027
-356.5 5.27861833572 3.51006937027
-356.5 0 7.02013874054
-356.5 -7.03815793991 0
-356.5 7.03815793991 0
-356.5 -1.75953948498 7.02013874054
-356.5 1.75953948498 7.02013874054
-356.5 -7.03815793991 1.75503468513
-356.5 7.03815793991 1.75503468513
-356.5 -5.27861833572 5.26510429382
-356.5 5.27861833572 5.26510429382
-356.5 -3.51907896996 7.02013874054
-356.5 3.51907896996 7.02013874054
-356.5 -7.03815793991 3.51006937027
-356.5 7.03815793991 3.51006937027
-356.5 0 8.77517318726
-356.5 -5.27861833572 7.02013874054
-356.5 5.27861833572 7.02013874054
-356.5 -7.03815793991 5.26510429382
-356.5 7.03815793991 5.26510429382
-356.5 -8.79769706726 0
-356.5 8.79769706726 0
-356.5 -1.75953948498 8.77517318726
-356.5 1.75953948498 8.77517318726
-356.5 -8.79769706726 1.75503468513
-356.5 8.79769706726 1.75503468513
-356.5 -3.51907896996 8.77517318726
-356.5 3.51907896996 8.77517318726
-356.5 -8.79769706726 3.51006937027
-356.5 8.79769706726 3.51006937027
-356.5 -7.03815793991 7.02013874054
-356.5 7.03815793991 7.02013874054
-356.5 -5.27861833572 8.77517318726
-356.5 5.27861833572 8.77517318726
-356.5 -8.79769706726 5.26510429382
-356.5 8.79769706726 5.26510429382
-356.5 0 10.5302085876
-356.5 -10.5572366714 0
-356.5 10.5572366714 0
-356.5 -1.75953948498 10.5302085876
-356.5 1.75953948498 10.5302085876
-356.5 -10.5572366714 1.75503468513
-356.5 10.5572366714 1.75503468513
-356.5 -3.51907896996 10.5302085876
-356.5 3.51907896996 10.5302085876
-356.5 -10.5572366714 3.51006937027
-356.5 10.5572366714 3.51006937027
-356.5 -7.03815793991 8.77517318726
-356.5 7.03815793991 8.77517318726
-356.5 -8.79769706726 7.02013874054
-356.5 8.79769706726 7.02013874054
-356.5 -5.27861833572 10.5302085876
-356.5 5.27861833572 10.5302085876
-356.5 -10.5572366714 5.26510429382
-356.5 10.5572366714 5.26510429382
-356.5 0 12.2852430344
-356.5 -12.3167762756 0
-356.5 12.3167762756 0
-356.5 -1.75953948498 12.2852430344
-356.5 1.75953948498 12.2852430344
-356.5 -8.79769706726 8.77517318726
-356.5 8.79769706726 8.77517318726
-356.5 -12.3167762756 1.75503468513
-356.5 12.3167762756 1.75503468513
-356.5 -7.03815793991 10.5302085876
-356.5 7.03815793991 10.5302085876
-356.5 -10.5572366714 7.02013874054
-356.5 10.5572366714 7.02013874054
-356.5 -3.51907896996 12.2852430344
-356.5 3.51907896996 12.2852430344
-356.5 -12.3167762756 3.51006937027
-356.5 12.3167762756 3.51006937027
-356.5 -5.27861833572 12.2852430344
-356.5 5.27861833572 12.2852430344
-356.5 -12.3167762756 5.26510429382
-356.5 12.3167762756 5.26510429382
-356.5 -8.79769706726 10.5302085876
-356.5 8.79769706726 10.5302085876
-356.5 -10.5572366714 8.77517318726
-356.5 10.5572366714 8.77517318726
-356.5 0 14.0402774811
-356.5 -14.0763158798 0
-356.5 14.0763158798 0
-356.5 -1.75953948498 14.0402774811
-356.5 1.75953948498 14.0402774811
-356.5 -7.03815793991 12.2852430344
-356.5 7.03815793991 12.2852430344
-356.5 -12.3167762756 7.02013874054
-356.5 12.3167762756 7.02013874054
-356.5 -14.0763158798 1.75503468513
-356.5 14.0763158798 1.75503468513
-356.5 -3.51907896996 14.0402774811
-356.5 3.51907896996 14.0402774811
-356.5 -14.0763158798 3.51006937027
-356.5 14.0763158798 3.51006937027
-356.5 -10.5572366714 10.5302085876
-356.5 10.5572366714 10.5302085876
-356.5 -5.27861833572 14.0402774811
-356.5 5.27861833572 14.0402774811
-356.5 -14.0763158798 5.26510429382
-356.5 14.0763158798 5.26510429382
-356.5 -8.79769706726 12.2852430344
-356.5 8.79769706726 12.2852430344
-356.5 -12.3167762756 8.77517318726
-356.5 12.3167762756 8.77517318726
-356.5 -7.03815793991 14.0402774811
-356.5 7.03815793991 14.0402774811
-356.5 -14.0763158798 7.02013874054
-356.5 14.0763158798 7.02013874054
-356.5 0 15.7953128815
-356.5 -15.835855484 0
-356.5 15.835855484 0
-356.5 -1.75953948498 15.7953128815
-356.5 1.75953948498 15.7953128815
-356.5 -15.835855484 1.75503468513
-356.5 15.835855484 1.75503468513
-356.5 -3.51907896996 15.7953128815
-356.5 3.51907896996 15.7953128815
-356.5 -10.5572366714 12.2852430344
-356.5 10.5572366714 12.2852430344
-356.5 -12.3167762756 10.5302085876
-356.5 12.3167762756 10.5302085876
-356.5 -15.835855484 3.51006937027
-356.5 15.835855484 3.51006937027
-356.5 -8.79769706726 14.0402774811
-356.5 8.79769706726 14.0402774811
-356.5 -14.0763158798 8.77517318726
-356.5 14.0763158798 8.77517318726
-356.5 -5.27861833572 15.7953128815
-356.5 5.27861833572 15.7953128815
-356.5 -15.835855484 5.26510429382
-356.5 15.835855484 5.26510429382
-356.5 -7.03815793991 15.7953128815
-356.5 7.03815793991 15.7953128815
-356.5 -15.835855484 7.02013874054
-356.5 15.835855484 7.02013874054
-356.5 -12.3167762756 12.2852430344
-356.5 12.3167762756 12.2852430344
-356.5 0 17.5503463745
-356.5 -10.5572366714 14.0402774811
-356.5 10.5572366714 14.0402774811
-356.5 -14.0763158798 10.5302085876
-356.5 14.0763158798 10.5302085876
-356.5 -17.5953941345 0
-356.5 17.5953941345 0
-356.5 -1.75953948498 17.5503463745
-356.5 1.75953948498 17.5503463745
-356.5 -17.5953941345 1.75503468513
-356.5 17.5953941345 1.75503468513
-356.5 -3.51907896996 17.5503463745
-356.5 3.51907896996 17.5503463745
-356.5 -17.5953941345 3.51006937027
-356.5 17.5953941345 3.51006937027
-356.5 -8.79769706726 15.7953128815
-356.5 8.79769706726 15.7953128815
-356.5 -15.835855484 8.77517318726
-356.5 15.835855484 8.77517318726
-356.5 -5.27861833572 17.5503463745
-356.5 5.27861833572 17.5503463745
-356.5 -17.5953941345 5.26510429382
-356.5 17.5953941345 5.26510429382
-356.5 -12.3167762756 14.0402774811
-356.5 12.3167762756 14.0402774811
-356.5 -14.0763158798 12.2852430344
-356.5 14.0763158798 12.2852430344
-356.5 -7.03815793991 17.5503463745
-356.5 7.03815793991 17.5503463745
-356.5 -17.5953941345 7.02013874054
-356.5 17.5953941345 7.02013874054
-356.5 -10.5572366714 15.7953128815
-356.5 10.5572366714 15.7953128815
-356.5 -15.835855484 10.5302085876
-356.5 15.835855484 10.5302085876
-356.5 0 19.3053817749
-356.5 -19.3549346924 0
-356.5 19.3549346924 0
-356.5 -1.75953948498 19.3053817749
-356.5 1.75953948498 19.3053817749
-356.5 -19.3549346924 1.75503468513
-356.5 19.3549346924 1.75503468513
-356.5 -3.51907896996 19.3053817749
-356.5 3.51907896996 19.3053817749
-356.5 -8.79769706726 17.5503463745
-356.5 8.79769706726 17.5503463745
-356.5 -17.5953941345 8.77517318726
-356.5 17.5953941345 8.77517318726
-356.5 -19.3549346924 3.51006937027
-356.5 19.3549346924 3.51006937027
-356.5 -14.0763158798 14.0402774811
-356.5 14.0763158798 14.0402774811
-356.5 -5.27861833572 19.3053817749
-356.5 5.27861833572 19.3053817749
-356.5 -12.3167762756 15.7953128815
-356.5 12.3167762756 15.7953128815
-356.5 -15.835855484 12.2852430344
-356.5 15.835855484 12.2852430344
-356.5 -19.3549346924 5.26510429382
-356.5 19.3549346924 5.26510429382
-356.5 -10.5572366714 17.5503463745
-356.5 10.5572366714 17.5503463745
-356.5 -17.5953941345 10.5302085876
-356.5 17.5953941345 10.5302085876
-356.5 -7.03815793991 19.3053817749
-356.5 7.03815793991 19.3053817749
-356.5 -19.3549346924 7.02013874054
-356.5 19.3549346924 7.02013874054
-356.5 0 21.0604171753
-356.5 -21.1144733429 0
-356.5 21.1144733429 0
-356.5 -1.75953948498 21.0604171753
-356.5 1.75953948498 21.0604171753
-356.5 -14.0763158798 15.7953128815
-356.5 14.0763158798 15.7953128815
-356.5 -15.835855484 14.0402774811
-356.5 15.835855484 14.0402774811
-356.5 -21.1144733429 1.75503468513
-356.5 21.1144733429 1.75503468513
-356.5 -8.79769706726 19.3053817749
-356.5 8.79769706726 19.3053817749
-356.5 -19.3549346924 8.77517318726
-356.5 19.3549346924 8.77517318726
-356.5 -3.51907896996 21.0604171753
-356.5 3.51907896996 21.0604171753
-356.5 -21.1144733429 3.51006937027
-356.5 21.1144733429 3.51006937027
-356.5 -12.3167762756 17.5503463745
-356.5 12.3167762756 17.5503463745
-356.5 -17.5953941345 12.2852430344
-356.5 17.5953941345 12.2852430344
-356.5 -5.27861833572 21.0604171753
-356.5 5.27861833572 21.0604171753
-356.5 -21.1144733429 5.26510429382
-356.5 21.1144733429 5.26510429382
-356.5 -10.5572366714 19.3053817749
-356.5 10.5572366714 19.3053817749
-356.5 -19.3549346924 10.5302085876
-356.5 19.3549346924 10.5302085876
-356.5 -7.03815793991 21.0604171753
-356.5 7.03815793991 21.0604171753
-356.5 -21.1144733429 7.02013874054
-356.5 21.1144733429 7.02013874054
-356.5 -15.835855484 15.7953128815
-356.5 15.835855484 15.7953128815
-356.5 -14.0763158798 17.5503463745
-356.5 14.0763158798 17.5503463745
-356.5 -17.5953941345 14.0402774811
-356.5 17.5953941345 14.0402774811
-356.5 0 22.8154506683
-356.5 -8.79769706726 21.0604171753
-356.5 8.79769706726 21.0604171753
-356.5 -21.1144733429 8.77517318726
-356.5 21.1144733429 8.77517318726
-356.5 -22.8740139008 0
-356.5 22.8740139008 0
-356.5 -1.75953948498 22.8154506683
-356.5 1.75953948498 22.8154506683
-356.5 -12.3167762756 19.3053817749
-356.5 12.3167762756 19.3053817749
-356.5 -19.3549346924 12.2852430344
-356.5 19.3549346924 12.2852430344
-356.5 -22.8740139008 1.75503468513
-356.5 22.8740139008 1.75503468513
-356.5 -3.51907896996 22.8154506683
-356.5 3.51907896996 22.8154506683
-356.5 -22.8740139008 3.51006937027
-356.5 22.8740139008 3.51006937027
-356.5 -5.27861833572 22.8154506683
-356.5 5.27861833572 22.8154506683
-356.5 -22.8740139008 5.26510429382
[...]
CELL_DATA 48576
FIELD attributes 1
p_rgh 1 48576 float
-0.181504890323 -0.128540500998 -0.119975164533 -0.0903986990452 -0.126524567604 -0.0687340125442 -0.0577255152166 -0.0901443660259 -0.0850183442235 -0.0609577819705
-0.0159820318222 -0.0499691776931 -0.0616749599576 -0.0376494079828 -0.0387324728072 0.0363104529679 0.00979645457119 -0.0104769160971 -0.00926656275988 -0.0395340844989
0.0222294237465 0.0463896803558 0.0478197745979 0.0503006242216 0.0254853516817 0.000839515356347 0.0234084781259 0.0723706483841 0.0181189309806 0.0614689476788
0.0795186907053 0.0743029117584 0.0422743074596 0.0618323907256 0.0576997846365 0.062531888485 0.00732646649703 0.0229224469513 0.0669033303857 0.101398207247
0.0791234299541 0.0867604538798 0.0655141845345 0.0385828800499 0.00635109608993 -0.015060082078 0.00205644150265 0.0445122905076 0.0944631770253 0.0781280472875
0.0994302630424 0.0937342643738 0.0442299693823 -0.0226584933698 0.0436737835407 -0.0280123371631 -0.0180064588785 0.025856718421 0.0721270740032 0.0494638420641
0.0850983336568 0.0994406715035 0.0572380945086 -0.014473343268 -0.0365525372326 0.141313314438 -0.0323132090271 -0.0238377265632 -0.00572238164023 0.0349076502025
0.0387570373714 0.0593182705343 0.0850598663092 0.0585648082197 0.0235761292279 -0.048973929137 0.0719921737909 0.0911581888795 -0.0325885005295 -0.0224355459213
-0.0354557074606 -0.0359693728387 0.0147367445752 0.0472316853702 0.0480753853917 0.0585864707828 0.0464726723731 0.0212717037648 0.0380696877837 0.0810271129012
0.100759729743 -0.0227335505188 -0.0342475101352 -0.0391203388572 -0.0373724587262 -0.0605854429305 0.023681178689 0.0275870803744 0.0453865788877 0.0534848347306
0.0656651034951 0.0622391067445 0.0940023511648 0.130460143089 0.126148477197 -0.0139411576092 -0.0121138831601 -0.0431395843625 -0.0423973537982 -0.0169506873935
-0.0764602273703 -0.002526354976 0.040262658149 0.0569729618728 0.0719471275806 0.0821324586868 0.106723316014 0.15732498467 0.152153208852 0.132274791598
0.0108097549528 -0.0166697185487 -0.0101149613038 -0.0215399377048 -0.0516163483262 0.0628343299031 -0.0857672095299 0.0096273580566 0.0379040800035 0.0660084635019
0.0798379033804 0.100674368441 0.157076612115 0.173083052039 0.140373766422 0.133571699262 0.0637223273516 -0.00599544867873 0.015185858123 -0.0193002913147
-0.026450401172 -0.0529049783945 0.122587181628 -0.0400757528841 0.0090009868145 0.0308996587992 0.0560749284923 0.0824871361256 0.133201256394 0.174973398447
0.136565446854 0.135799333453 0.130336046219 0.132480531931 0.0617875494063 0.00160406948999 0.0399311408401 -0.0123997442424 -0.0340306572616 -0.0356813296676
0.186462759972 -0.0199314448982 -0.000403668353101 0.0168342478573 0.0521728135645 0.100751243532 0.15478657186 0.143984362483 0.12522624433 0.123104445636
0.128235518932 0.203653499484 0.0947589427233 0.0709162279963 0.0404616184533 0.044881619513 -0.000785179669037 -0.012549390085 -0.0267160777003 0.319861203432
-0.0089345946908 0.00154672167264 0.0261546336114 0.0730674639344 0.137163743377 0.14812245965 0.128646627069 0.114895038307 0.116517350078 0.130842864513
0.313005298376 0.23050057888 0.110572658479 0.0654347836971 0.0556407533586 0.0636744946241 0.0323841683567 0.00679449411109 -0.00904845818877 0.419105112553
0.00529225124046 0.0193037446588 0.0485564991832 0.112780094147 0.143304884434 0.143381118774 0.126683741808 0.106942541897 0.122978955507 0.106570139527
0.274478822947 0.282349854708 0.274360388517 0.143403083086 0.0915677174926 0.0687145516276 0.0475842393935 0.027510156855 0.0215653665364 0.00974509399384
0.461958736181 0.0246815085411 0.0389462485909 0.0921546295285 0.129267722368 0.149210453033 0.144024267793 0.114151611924 0.125744059682 0.112767659128
0.0938348546624 0.403306692839 0.193181991577 0.291907638311 0.251351237297 0.158043578267 0.103986047208 0.108908511698 0.076801635325 0.0507774315774
0.048769287765 0.0213441103697 0.489395350218 0.0416798554361 0.0707896351814 0.117771185935 0.146251767874 0.155538991094 0.137856900692 0.132689982653
0.129763975739 0.11515276134 0.103455632925 0.415674507618 0.291759371758 0.207353159785 0.291869848967 0.223793625832 0.141015931964 0.129851773381
0.0985600277781 0.084701910615 0.088402852416 0.0636864006519 0.0583003647625 0.354986459017 0.0659134238958 0.0983775258064 0.134330481291 0.167548909783
0.150066658854 0.142632871866 0.134649395943 0.133235275745 0.125214889646 0.12327221781 0.342879354954 0.272203177214 0.198435649276 0.243659853935
0.270780235529 0.189728036523 0.107456482947 0.129567027092 0.107832089067 0.101307764649 0.112472824752 0.105214230716 0.0946497023106 0.276387572289
0.0945283100009 0.120878070593 0.154429525137 0.160497158766 0.141420856118 0.1371537745 0.126007169485 0.158601507545 0.148771315813 0.100690551102
0.273914694786 0.286539286375 0.241665616632 0.151158288121 0.252822041512 0.24988669157 0.149417564273 0.0976174846292 0.0962369590998 0.135459169745
0.131169229746 0.161963522434 0.130943983793 0.125292658806 0.284791350365 0.132929936051 0.133506029844 0.15085555613 0.141238868237 0.145570650697
0.124851956964 0.144572019577 0.197877898812 0.125834450126 0.0864587947726 0.322683274746 0.368466556072 0.325956702232 0.234952524304 0.234327927232
0.234292656183 0.233724623919 0.145393684506 0.103182628751 0.108086161315 0.136839389801 0.168632656336 0.173262536526 0.138208597898 0.166112557054
0.432634294033 0.148172408342 0.135916754603 0.132944837213 0.153287962079 0.138328611851 0.124938450754 0.182408168912 0.172929763794 0.0929408594966
0.101750642061 0.414251565933 0.36946451664 0.426027417183 0.288569509983 0.252636164427 0.260573685169 0.228523209691 0.215325415134 0.179149240255
0.0942954942584 0.128104507923 0.155977085233 0.177964493632 0.1741450876 0.150463104248 0.181065917015 0.281667500734 0.143963396549 0.125202387571
0.146413251758 0.161040589213 0.140781581402 0.15810456872 0.174178317189 0.123628824949 0.113036826253 0.0787155628204 0.265625357628 0.4256965518
0.412892490625 0.402658104897 0.266986519098 0.276894181967 0.30488961935 0.209245532751 0.193038374186 0.1330973804 0.0861289575696 0.159034192562
0.151018857956 0.171962052584 0.17120115459 0.158550441265 0.174001514912 0.388901084661 0.132811844349 0.145344093442 0.165854170918 0.163159966469
0.164766788483 0.166824862361 0.155578583479 0.131543338299 0.0927665308118 0.0526921339333 0.427840828896 0.272106796503 0.431020736694 0.383249700069
0.385171025991 0.28152102232 0.284076482058 0.308276295662 0.181514009833 0.139466807246 0.134056851268 0.148594811559 0.175735011697 0.144517078996
0.160810112953 0.157984137535 0.157085165381 0.159015998244 0.572163701057 0.158183678985 0.174706891179 0.17579202354 0.184331804514 0.177428111434
0.162920638919 0.166020900011 0.12687073648 0.073833309114 0.0766092315316 0.63648378849 0.381294906139 0.333186388016 0.457070738077 0.358712852001
0.381001651287 0.286878228188 0.281075894833 0.283732265234 0.140261337161 0.115480408072 0.130743905902 0.159924551845 0.195513874292 0.144666403532
0.145967319608 0.146178171039 0.141616687179 0.166025429964 0.535663425922 0.202716872096 0.19074767828 0.200198292732 0.213713884354 0.169495269656
0.178380861878 0.171962529421 0.134512871504 0.102709084749 0.0836272910237 0.551661670208 0.596941947937 0.380336165428 0.342046827078 0.423468142748
0.329415142536 0.342855364084 0.291861593723 0.298444092274 0.273399919271 0.105580687523 0.090182185173 0.12657366693 0.170203134418 0.2036986202
0.142631024122 0.132186740637 0.139125362039 0.155099391937 0.204307287931 0.496644675732 0.216602295637 0.2164426893 0.233294054866 0.201617851853
0.172550305724 0.196617826819 0.177071109414 0.148648768663 0.116655215621 0.0810299813747 0.494756549597 0.505158543587 0.559617936611 0.356789648533
0.386143803596 0.350657641888 0.296157360077 0.31598263979 0.271224170923 0.292237073183 0.269004195929 0.0695697814226 0.0615874752402 0.185638457537
0.1981318295 0.219694107771 0.1416644454 0.134213641286 0.151662290096 0.194726109505 0.21927253902 0.493308633566 0.236928522587 0.255963742733
0.230124264956 0.190565511584 0.186484619975 0.202593818307 0.171714782715 0.1342946738 0.112458825111 0.0781501382589 0.48423525691 0.473310619593
0.465227663517 0.509415328503 0.390687912703 0.371266812086 0.332361370325 0.316996008158 0.3001331985 0.289167612791 0.301936745644 0.186726137996
0.0372768081725 0.122758492827 0.216051653028 0.228048816323 0.218882709742 0.145123586059 0.136843442917 0.190722927451 0.20848210156 0.246488288045
0.461789727211 0.278732836246 0.262015223503 0.219622552395 0.198799327016 0.198073327541 0.19182421267 0.155743002892 0.11009363085 0.092860005796
0.0639163181186 0.456171929836 0.472869247198 0.450002789497 0.448295027018 0.482687264681 0.389277666807 0.366044521332 0.346996039152 0.343740284443
0.338210493326 0.347044318914 0.283121973276 0.156260296702 0.106761105359 0.157084032893 0.230093806982 0.28374671936 0.21721188724 0.156207531691
0.165276840329 0.20865534246 0.250392019749 0.290436893702 0.460736960173 0.28849580884 0.262106388807 0.221992641687 0.208762437105 0.19437135756
0.18105147779 0.146070495248 0.0771419405937 0.0914554968476 0.0486225299537 0.467567116022 0.444838941097 0.468003809452 0.468193888664 0.452439785004
0.464891821146 0.409697592258 0.369200140238 0.336624920368 0.286956161261 0.372513204813 0.333695471287 0.266912460327 0.207431092858 0.184182286263
0.175826236606 0.263524830341 0.304422408342 0.232075199485 0.170736640692 0.199948117137 0.253323823214 0.308559030294 0.299460351467 0.429654210806
0.292681992054 0.266675114632 0.232174560428 0.214466646314 0.194710046053 0.185806319118 0.125239416957 0.0759612843394 0.0946847200394 0.021405454725
0.442827135324 0.462051719427 0.457288712263 0.446508139372 0.498347193003 0.444433629513 0.432187139988 0.383470654488 0.342481285334 0.382742762566
0.276469171047 0.361636459827 0.288238763809 0.28188803792 0.272017329931 0.163244366646 0.206581711769 0.262248039246 0.282844692469 0.270555764437
0.186464235187 0.265478521585 0.328348189592 0.317447572947 0.296646773815 0.426498323679 0.305190980434 0.261112600565 0.246921405196 0.216301769018
0.209625437856 0.176742956042 0.136026605964 0.0870539695024 0.0908896699548 -0.0143055515364 0.434350430965 0.442258775234 0.476022332907 0.459581196308
0.459146738052 0.5187266469 0.448462933302 0.441715121269 0.365327179432 0.348458230495 0.440870523453 0.338737517595 0.343835443258 0.306789904833
0.284284204245 0.267708390951 0.138705551624 0.159388333559 0.222646087408 0.339523434639 0.290020883083 0.231431230903 0.357530355453 0.354301184416
0.317524820566 0.306402027607 0.449908226728 0.308562338352 0.263319730759 0.258374303579 0.222009509802 0.201570719481 0.193896979094 0.147475734353
0.109566584229 0.0836781933904 -0.0472854413092 0.46807834506 0.417926102877 0.471556246281 0.471402198076 0.457574546337 0.471619069576 0.539579808712
0.491075247526 0.468845546246 0.377659082413 0.390100777149 0.501823484898 0.414984285831 0.336276322603 0.318861633539 0.259314715862 0.236981660128
0.168082922697 0.180242612958 0.243908315897 0.385004252195 0.279556125402 0.328476816416 0.393507778645 0.358136475086 0.323937654495 0.314851999283
0.371463149786 0.305657893419 0.291805177927 0.266064792871 0.220533564687 0.206176787615 0.202760636806 0.170957282186 0.128144189715 0.0624700970948
-0.0602247305214 0.361356645823 0.474187403917 0.437962591648 0.49295181036 0.478262275457 0.44837975502 0.47295242548 0.54323977232 0.501425802708
0.475802868605 0.419505029917 0.4415833354 0.507388353348 0.434573322535 0.351923555136 0.299684435129 0.243352502584 0.272444665432 0.16968280077
0.189187601209 0.306362092495 0.34707942605 0.333865135908 0.393998652697 0.404606431723 0.351889610291 0.347888231277 0.301382541656 0.321717590094
0.312070041895 0.322871536016 0.277978420258 0.23036134243 0.222559794784 0.212565004826 0.183614477515 0.121613308787 0.0533708706498 -0.0515263155103
0.335475951433 0.372189998627 0.454800724983 0.495364636183 0.485681116581 0.484697014093 0.43790474534 0.466522097588 0.517587184906 0.507040739059
0.477082878351 0.470930725336 0.487840563059 0.45785048604 0.416123956442 0.336168467999 0.29078656435 0.290066123009 0.288553655148 0.15243947506
0.264138698578 0.312251329422 0.349769234657 0.395005851984 0.422420471907 0.407488107681 0.366280257702 0.345039784908 0.295817524195 0.411202013493
0.333078116179 0.329651802778 0.280313014984 0.262109994888 0.239288449287 0.217196792364 0.175405710936 0.113888435066 0.0522429384291 -0.0525480806828
0.399841666222 0.335977345705 0.367311477661 0.505277872086 0.528763353825 0.463629603386 0.484583437443 0.452088445425 0.456093460321 0.488918274641
0.499072611332 0.476832330227 0.490552425385 0.505529522896 0.448590904474 0.397961556911 0.347046047449 0.336556375027 0.314821481705 0.26304218173
0.228596523404 0.329519152641 0.307586550713 0.384343087673 0.411210328341 0.429090708494 0.395257145166 0.384368538857 0.331589102745 0.315143913031
0.0230009667575 0.324704438448 0.325540423393 0.298576980829 0.28880161047 0.250370949507 0.210995584726 0.157118469477 0.120659470558 0.0451577752829
-0.0658896416426 0.0207076836377 0.344745308161 0.319446057081 0.392073273659 0.546508133411 0.544216692448 0.445410132408 0.491746276617 0.475752800703
0.435255855322 0.493084639311 0.489862114191 0.488765507936 0.492723613977 0.537401497364 0.499255985022 0.371886521578 0.396923780441 0.343365192413
0.330135583878 0.286461532116 0.301770567894 0.339859396219 0.33253288269 0.41381201148 0.414639621973 0.432563245296 0.388676136732 0.390689909458
0.340220272541 0.305508583784 0.309243172407 0.330939948559 0.338294774294 0.322086751461 0.296074509621 0.256801724434 0.194472670555 0.157149702311
0.106225885451 0.0344002619386 -0.0607443004847 0.336177110672 -0.0132405180484 0.205819919705 0.325590640306 0.447520375252 0.505354404449 0.586439967155
0.465634942055 0.520843625069 0.483762353659 0.429741173983 0.467508524656 0.476152926683 0.517457544804 0.515909433365 0.567233860493 0.494745492935
0.36853942275 0.404767155647 0.368816912174 0.328864306211 0.312240093946 0.302759051323 0.34002238512 0.397014468908 0.440251201391 0.436531484127
0.415812879801 0.392640501261 0.4074203372 0.347830593586 0.307642430067 0.614149570465 0.353506058455 0.35094717145 0.339647173882 0.302366167307
0.246393382549 0.1897149086 0.13642808795 0.107403859496 0.0216885581613 -0.0238170232624 0.666340172291 0.346336960793 -0.0441118627787 0.100774951279
0.361736655235 0.494515359402 0.415650784969 0.5456340909 0.469023168087 0.554462492466 0.484129577875 0.413747161627 0.434137254953 0.469438195229
0.543171703815 0.533167362213 0.551528453827 0.479660332203 0.407677412033 0.389752328396 0.396049529314 0.330272257328 0.306882679462 0.297566324472
0.377244979143 0.44565820694 0.469641447067 0.437400668859 0.397282272577 0.413802713156 0.410520583391 0.343235403299 0.336511522532 0.556653857231
0.369009166956 0.353881776333 0.34644022584 0.301737427711 0.231374174356 0.175742685795 0.129965230823 0.0993914678693 0.0206193700433 0.0152743244544
0.541220009327 0.643072664738 0.256673246622 -0.0544100701809 0.0529084913433 0.355036765337 0.489346414804 0.458068490028 0.513604164124 0.443383336067
0.580326735973 0.486585170031 0.427952349186 0.427404224873 0.454520583153 0.551562488079 0.52134335041 0.542529165745 0.485437810421 0.438955008984
0.432032138109 0.381072610617 0.346727401018 0.312050104141 0.348858982325 0.414219021797 0.472115665674 0.470137357712 0.424649864435 0.40798252821
0.421175539494 0.389942735434 0.355687856674 0.364817231894 0.458419710398 0.37638297677 0.354572623968 0.339410543442 0.2821611166 0.21556045115
0.165030896664 0.130613967776 0.0809908881783 0.0624842345715 0.0103932050988 0.45894163847 0.539552390575 0.647554695606 0.173776701093 -0.0982577055693
0.0284142252058 0.34798771143 0.443105489016 0.477803707123 0.482523530722 0.438522785902 0.625600278378 0.472783535719 0.439673244953 0.439169198275
0.449391692877 0.549402356148 0.525722384453 0.522221803665 0.512495934963 0.470162183046 0.425942540169 0.394161373377 0.341198295355 0.376550406218
0.402059435844 0.436891049147 0.486421823502 0.460268974304 0.453829288483 0.420029908419 0.390031427145 0.378431707621 0.375940918922 0.390569299459
0.277135550976 0.3759367764 0.353704869747 0.314490169287 0.259288311005 0.194864541292 0.165883988142 0.112169265747 0.109044149518 0.0550593100488
0.00559617718682 0.282041817904 0.475621461868 0.494504600763 0.600898146629 0.166608899832 -0.115797623992 0.0848164111376 0.360763639212 0.4163377285
0.475743055344 0.469366967678 0.46044421196 0.646947443485 0.478846281767 0.420117020607 0.454035669565 0.449341952801 0.552720248699 0.532562434673
0.513620555401 0.529551267624 0.466167062521 0.417271792889 0.39352235198 0.357679486275 0.433275014162 0.405314177275 0.447430819273 0.488525509834
0.496381223202 0.491856455803 0.402326375246 0.356932014227 0.381082952023 0.399730801582 0.40720936656 0.343748748302 0.376548707485 0.336720168591
0.297399878502 0.229321628809 0.194343477488 0.141994073987 0.132239505649 0.112566843629 0.0437927134335 0.31744107604 0.27194994688 0.483867734671
0.455372184515 0.561981678009 0.161150768399 -0.049742385745 0.169028490782 0.415553897619 0.379373073578 0.531165063381 0.473323196173 0.489311128855
0.644251406193 0.491018623114 0.381815433502 0.47871991992 0.469245284796 0.547692596912 0.540571272373 0.503338932991 0.517709374428 0.453989207745
0.429443359375 0.393280565739 0.385838776827 0.403190761805 0.414845228195 0.440393596888 0.530959248543 0.544611573219 0.485983788967 0.380496352911
0.342619031668 0.384605437517 0.425251126289 0.420180410147 0.601003348827 0.352966964245 0.328931331635 0.266300618649 0.218704387546 0.179006367922
0.144727110863 0.154946491122 0.0955885052681 0.587234020233 0.306742072105 0.279355436563 0.487793385983 0.423590779305 0.486325144768 0.180297404528
0.0388902463019 0.21884727478 0.468740940094 0.340397715569 0.595875859261 0.492658406496 0.507286965847 0.646439611912 0.511130511761 0.395714044571
0.496119707823 0.499019593 0.553636312485 0.547395646572 0.463884264231 0.502225041389 0.445432186127 0.430022567511 0.401212543249 0.384148269892
0.396769970655 0.434999853373 0.481116205454 0.575589895248 0.530040621758 0.454116284847 0.367087841034 0.3342474401 0.403232693672 0.445575654507
0.392289966345 0.574827730656 0.342907607555 0.303322464228 0.251117378473 0.197720497847 0.185019791126 0.164693832397 0.144064828753 0.538327276707
0.613552689552 0.284300297499 0.306221425533 0.490479975939 0.408283144236 0.433098912239 0.17823792994 0.0965942069888 0.270460009575 0.480362653732
0.333163648844 0.605903863907 0.514557480812 0.553641974926 0.627073943615 0.549896538258 0.438177615404 0.499985277653 0.530031383038 0.570745646954
0.531944394112 0.433731585741 0.486805349588 0.422677248716 0.433051109314 0.395851939917 0.378527104855 0.425735235214 0.455114394426 0.532427847385
0.558738946915 0.465550601482 0.431167811155 0.348559975624 0.35499548912 0.430287986994 0.424125611782 0.366322845221 0.197287455201 0.327388346195
0.288254976273 0.224347144365 0.201986312866 0.191932633519 0.161921083927 0.214299499989 0.538430809975 0.558785915375 0.259498298168 0.358933508396
0.455685257912 0.344280153513 0.373798191547 0.184690445662 0.134846448898 0.310688138008 0.497340381145 0.327954411507 0.59840720892 0.537905037403
0.537073850632 0.597367048264 0.569707930088 0.477624922991 0.498283177614 0.550597190857 0.581131696701 0.512079119682 0.438470095396 0.467050552368
0.423711419106 0.407982438803 0.355848670006 0.366022408009 0.441051125526 0.48480001092 0.525118291378 0.479632943869 0.407597571611 0.404873877764
0.37476092577 0.400366544724 0.421271294355 0.382544308901 0.356653422117 0.234867095947 0.309950232506 0.268088966608 0.214256212115 0.214487999678