TITLE = "Mask Points"
VARIABLES = "x","y","z"
ZONE I=3736,J=2,K=1, DATAPACKING=POINT
  0.16618E+00  0.14480E+00  0.69432E-01
  0.14480E+00  0.16618E+00  0.69432E-01
  0.16618E+00  0.16618E+00  0.69432E-01
  0.16618E+00  0.14480E+00  0.33001E+00
  0.14480E+00  0.16618E+00  0.33001E+00
  0.16618E+00  0.16618E+00  0.33001E+00
  0.16618E+00  0.14480E+00  0.66999E+00
  0.14480E+00  0.16618E+00  0.66999E+00
  0.16618E+00  0.16618E+00  0.66999E+00
  0.16618E+00  0.14480E+00  0.93057E+00
  0.14480E+00  0.16618E+00  0.93057E+00
  0.16618E+00  0.16618E+00  0.93057E+00
  0.47293E+00  0.21169E-02  0.69432E-01
  0.49430E+00  0.21169E-02  0.69432E-01
  0.47293E+00  0.21169E-02  0.33001E+00
  0.49430E+00  0.21169E-02  0.33001E+00
  0.47293E+00  0.21169E-02  0.66999E+00
  0.49430E+00  0.21169E-02  0.66999E+00
  0.47293E+00  0.21169E-02  0.93057E+00
  0.49430E+00  0.21169E-02  0.93057E+00
  0.22684E+00  0.84148E-01  0.69432E-01
  0.24821E+00  0.84148E-01  0.69432E-01
  0.22684E+00  0.84148E-01  0.33001E+00
  0.24821E+00  0.84148E-01  0.33001E+00
  0.22684E+00  0.84148E-01  0.66999E+00
  0.24821E+00  0.84148E-01  0.66999E+00
  0.22684E+00  0.84148E-01  0.93057E+00
  0.24821E+00  0.84148E-01  0.93057E+00
  0.33024E+00  0.34884E-01  0.69432E-01
  0.25960E+00  0.62773E-01  0.69432E-01
  0.28098E+00  0.62773E-01  0.69432E-01
  0.30887E+00  0.62773E-01  0.69432E-01
  0.33024E+00  0.62773E-01  0.69432E-01
  0.25960E+00  0.84148E-01  0.69432E-01
  0.28098E+00  0.84148E-01  0.69432E-01
  0.30887E+00  0.84148E-01  0.69432E-01
  0.33024E+00  0.84148E-01  0.69432E-01
  0.33024E+00  0.34884E-01  0.33001E+00
  0.25960E+00  0.62773E-01  0.33001E+00
  0.28098E+00  0.62773E-01  0.33001E+00
  0.30887E+00  0.62773E-01  0.33001E+00
  0.33024E+00  0.62773E-01  0.33001E+00
  0.25960E+00  0.84148E-01  0.33001E+00
  0.28098E+00  0.84148E-01  0.33001E+00
  0.30887E+00  0.84148E-01  0.33001E+00
  0.33024E+00  0.84148E-01  0.33001E+00
  0.33024E+00  0.34884E-01  0.66999E+00
  0.25960E+00  0.62773E-01  0.66999E+00
  0.28098E+00  0.62773E-01  0.66999E+00
  0.30887E+00  0.62773E-01  0.66999E+00
  0.33024E+00  0.62773E-01  0.66999E+00
  0.25960E+00  0.84148E-01  0.66999E+00
  0.28098E+00  0.84148E-01  0.66999E+00
  0.30887E+00  0.84148E-01  0.66999E+00
  0.33024E+00  0.84148E-01  0.66999E+00
  0.33024E+00  0.34884E-01  0.93057E+00
  0.25960E+00  0.62773E-01  0.93057E+00
  0.28098E+00  0.62773E-01  0.93057E+00
  0.30887E+00  0.62773E-01  0.93057E+00
  0.33024E+00  0.62773E-01  0.93057E+00
  0.25960E+00  0.84148E-01  0.93057E+00
  0.28098E+00  0.84148E-01  0.93057E+00
  0.30887E+00  0.84148E-01  0.93057E+00
  0.33024E+00  0.84148E-01  0.93057E+00
  0.22684E+00  0.95539E-01  0.69432E-01
  0.24821E+00  0.95539E-01  0.69432E-01
  0.19895E+00  0.11691E+00  0.69432E-01
  0.22684E+00  0.11691E+00  0.69432E-01
  0.24821E+00  0.11691E+00  0.69432E-01
  0.17757E+00  0.14480E+00  0.69432E-01
  0.19895E+00  0.14480E+00  0.69432E-01
  0.22684E+00  0.14480E+00  0.69432E-01
  0.24821E+00  0.14480E+00  0.69432E-01
  0.17757E+00  0.16618E+00  0.69432E-01
  0.19895E+00  0.16618E+00  0.69432E-01
  0.22684E+00  0.16618E+00  0.69432E-01
  0.24821E+00  0.16618E+00  0.69432E-01
  0.22684E+00  0.95539E-01  0.33001E+00
  0.24821E+00  0.95539E-01  0.33001E+00
  0.19895E+00  0.11691E+00  0.33001E+00
  0.22684E+00  0.11691E+00  0.33001E+00
  0.24821E+00  0.11691E+00  0.33001E+00
  0.17757E+00  0.14480E+00  0.33001E+00
  0.19895E+00  0.14480E+00  0.33001E+00
  0.22684E+00  0.14480E+00  0.33001E+00
  0.24821E+00  0.14480E+00  0.33001E+00
  0.17757E+00  0.16618E+00  0.33001E+00
  0.19895E+00  0.16618E+00  0.33001E+00
  0.22684E+00  0.16618E+00  0.33001E+00
  0.24821E+00  0.16618E+00  0.33001E+00
  0.22684E+00  0.95539E-01  0.66999E+00
  0.24821E+00  0.95539E-01  0.66999E+00
  0.19895E+00  0.11691E+00  0.66999E+00
  0.22684E+00  0.11691E+00  0.66999E+00
  0.24821E+00  0.11691E+00  0.66999E+00
  0.17757E+00  0.14480E+00  0.66999E+00
  0.19895E+00  0.14480E+00  0.66999E+00
  0.22684E+00  0.14480E+00  0.66999E+00
  0.24821E+00  0.14480E+00  0.66999E+00
  0.17757E+00  0.16618E+00  0.66999E+00
  0.19895E+00  0.16618E+00  0.66999E+00
  0.22684E+00  0.16618E+00  0.66999E+00
  0.24821E+00  0.16618E+00  0.66999E+00
  0.22684E+00  0.95539E-01  0.93057E+00
  0.24821E+00  0.95539E-01  0.93057E+00
  0.19895E+00  0.11691E+00  0.93057E+00
  0.22684E+00  0.11691E+00  0.93057E+00
  0.24821E+00  0.11691E+00  0.93057E+00
  0.17757E+00  0.14480E+00  0.93057E+00
  0.19895E+00  0.14480E+00  0.93057E+00
  0.22684E+00  0.14480E+00  0.93057E+00
  0.24821E+00  0.14480E+00  0.93057E+00
  0.17757E+00  0.16618E+00  0.93057E+00
  0.19895E+00  0.16618E+00  0.93057E+00
  0.22684E+00  0.16618E+00  0.93057E+00
  0.24821E+00  0.16618E+00  0.93057E+00
  0.25960E+00  0.95539E-01  0.69432E-01
  0.28098E+00  0.95539E-01  0.69432E-01
  0.30887E+00  0.95539E-01  0.69432E-01
  0.33024E+00  0.95539E-01  0.69432E-01
  0.25960E+00  0.11691E+00  0.69432E-01
  0.28098E+00  0.11691E+00  0.69432E-01
  0.30887E+00  0.11691E+00  0.69432E-01
  0.33024E+00  0.11691E+00  0.69432E-01
  0.25960E+00  0.14480E+00  0.69432E-01
  0.28098E+00  0.14480E+00  0.69432E-01
  0.30887E+00  0.14480E+00  0.69432E-01
  0.33024E+00  0.14480E+00  0.69432E-01
  0.25960E+00  0.16618E+00  0.69432E-01
  0.28098E+00  0.16618E+00  0.69432E-01
  0.30887E+00  0.16618E+00  0.69432E-01
  0.33024E+00  0.16618E+00  0.69432E-01
  0.25960E+00  0.95539E-01  0.33001E+00
  0.28098E+00  0.95539E-01  0.33001E+00
  0.30887E+00  0.95539E-01  0.33001E+00
  0.33024E+00  0.95539E-01  0.33001E+00
  0.25960E+00  0.11691E+00  0.33001E+00
  0.28098E+00  0.11691E+00  0.33001E+00
  0.30887E+00  0.11691E+00  0.33001E+00
  0.33024E+00  0.11691E+00  0.33001E+00
  0.25960E+00  0.14480E+00  0.33001E+00
  0.28098E+00  0.14480E+00  0.33001E+00
  0.30887E+00  0.14480E+00  0.33001E+00
  0.33024E+00  0.14480E+00  0.33001E+00
  0.25960E+00  0.16618E+00  0.33001E+00
  0.28098E+00  0.16618E+00  0.33001E+00
  0.30887E+00  0.16618E+00  0.33001E+00
  0.33024E+00  0.16618E+00  0.33001E+00
  0.25960E+00  0.95539E-01  0.66999E+00
  0.28098E+00  0.95539E-01  0.66999E+00
  0.30887E+00  0.95539E-01  0.66999E+00
  0.33024E+00  0.95539E-01  0.66999E+00
  0.25960E+00  0.11691E+00  0.66999E+00
  0.28098E+00  0.11691E+00  0.66999E+00
  0.30887E+00  0.11691E+00  0.66999E+00
  0.33024E+00  0.11691E+00  0.66999E+00
  0.25960E+00  0.14480E+00  0.66999E+00
  0.28098E+00  0.14480E+00  0.66999E+00
  0.30887E+00  0.14480E+00  0.66999E+00
  0.33024E+00  0.14480E+00  0.66999E+00
  0.25960E+00  0.16618E+00  0.66999E+00
  0.28098E+00  0.16618E+00  0.66999E+00
  0.30887E+00  0.16618E+00  0.66999E+00
  0.33024E+00  0.16618E+00  0.66999E+00
  0.25960E+00  0.95539E-01  0.93057E+00
  0.28098E+00  0.95539E-01  0.93057E+00
  0.30887E+00  0.95539E-01  0.93057E+00
  0.33024E+00  0.95539E-01  0.93057E+00
  0.25960E+00  0.11691E+00  0.93057E+00
  0.28098E+00  0.11691E+00  0.93057E+00
  0.30887E+00  0.11691E+00  0.93057E+00
  0.33024E+00  0.11691E+00  0.93057E+00
  0.25960E+00  0.14480E+00  0.93057E+00
  0.28098E+00  0.14480E+00  0.93057E+00
  0.30887E+00  0.14480E+00  0.93057E+00
  0.33024E+00  0.14480E+00  0.93057E+00
  0.25960E+00  0.16618E+00  0.93057E+00
  0.28098E+00  0.16618E+00  0.93057E+00
  0.30887E+00  0.16618E+00  0.93057E+00
  0.33024E+00  0.16618E+00  0.93057E+00
  0.39090E+00  0.13508E-01  0.69432E-01
  0.41227E+00  0.13508E-01  0.69432E-01
  0.34163E+00  0.34884E-01  0.69432E-01
  0.36301E+00  0.34884E-01  0.69432E-01
  0.39090E+00  0.34884E-01  0.69432E-01
  0.41227E+00  0.34884E-01  0.69432E-01
  0.34163E+00  0.62773E-01  0.69432E-01
  0.36301E+00  0.62773E-01  0.69432E-01
  0.39090E+00  0.62773E-01  0.69432E-01
  0.41227E+00  0.62773E-01  0.69432E-01
  0.34163E+00  0.84148E-01  0.69432E-01
  0.36301E+00  0.84148E-01  0.69432E-01
  0.39090E+00  0.84148E-01  0.69432E-01
  0.41227E+00  0.84148E-01  0.69432E-01
  0.39090E+00  0.13508E-01  0.33001E+00
  0.41227E+00  0.13508E-01  0.33001E+00
  0.34163E+00  0.34884E-01  0.33001E+00
  0.36301E+00  0.34884E-01  0.33001E+00
  0.39090E+00  0.34884E-01  0.33001E+00
  0.41227E+00  0.34884E-01  0.33001E+00
  0.34163E+00  0.62773E-01  0.33001E+00
  0.36301E+00  0.62773E-01  0.33001E+00
  0.39090E+00  0.62773E-01  0.33001E+00
  0.41227E+00  0.62773E-01  0.33001E+00
  0.34163E+00  0.84148E-01  0.33001E+00
  0.36301E+00  0.84148E-01  0.33001E+00
  0.39090E+00  0.84148E-01  0.33001E+00
  0.41227E+00  0.84148E-01  0.33001E+00
  0.39090E+00  0.13508E-01  0.66999E+00
  0.41227E+00  0.13508E-01  0.66999E+00
  0.34163E+00  0.34884E-01  0.66999E+00
  0.36301E+00  0.34884E-01  0.66999E+00
  0.39090E+00  0.34884E-01  0.66999E+00
  0.41227E+00  0.34884E-01  0.66999E+00
  0.34163E+00  0.62773E-01  0.66999E+00
  0.36301E+00  0.62773E-01  0.66999E+00
  0.39090E+00  0.62773E-01  0.66999E+00
  0.41227E+00  0.62773E-01  0.66999E+00
  0.34163E+00  0.84148E-01  0.66999E+00
  0.36301E+00  0.84148E-01  0.66999E+00
  0.39090E+00  0.84148E-01  0.66999E+00
  0.41227E+00  0.84148E-01  0.66999E+00
  0.39090E+00  0.13508E-01  0.93057E+00
  0.41227E+00  0.13508E-01  0.93057E+00
  0.34163E+00  0.34884E-01  0.93057E+00
  0.36301E+00  0.34884E-01  0.93057E+00
  0.39090E+00  0.34884E-01  0.93057E+00
  0.41227E+00  0.34884E-01  0.93057E+00
  0.34163E+00  0.62773E-01  0.93057E+00
  0.36301E+00  0.62773E-01  0.93057E+00
  0.39090E+00  0.62773E-01  0.93057E+00
  0.41227E+00  0.62773E-01  0.93057E+00
  0.34163E+00  0.84148E-01  0.93057E+00
  0.36301E+00  0.84148E-01  0.93057E+00
  0.39090E+00  0.84148E-01  0.93057E+00
  0.41227E+00  0.84148E-01  0.93057E+00
  0.42366E+00  0.13508E-01  0.69432E-01
  0.44504E+00  0.13508E-01  0.69432E-01
  0.47293E+00  0.13508E-01  0.69432E-01
  0.49430E+00  0.13508E-01  0.69432E-01
  0.42366E+00  0.34884E-01  0.69432E-01
  0.44504E+00  0.34884E-01  0.69432E-01
  0.47293E+00  0.34884E-01  0.69432E-01
  0.49430E+00  0.34884E-01  0.69432E-01
  0.42366E+00  0.62773E-01  0.69432E-01
  0.44504E+00  0.62773E-01  0.69432E-01
  0.47293E+00  0.62773E-01  0.69432E-01
  0.49430E+00  0.62773E-01  0.69432E-01
  0.42366E+00  0.84148E-01  0.69432E-01
  0.44504E+00  0.84148E-01  0.69432E-01
  0.47293E+00  0.84148E-01  0.69432E-01
  0.49430E+00  0.84148E-01  0.69432E-01
  0.42366E+00  0.13508E-01  0.33001E+00
  0.44504E+00  0.13508E-01  0.33001E+00
  0.47293E+00  0.13508E-01  0.33001E+00
  0.49430E+00  0.13508E-01  0.33001E+00
  0.42366E+00  0.34884E-01  0.33001E+00
  0.44504E+00  0.34884E-01  0.33001E+00
  0.47293E+00  0.34884E-01  0.33001E+00
  0.49430E+00  0.34884E-01  0.33001E+00
  0.42366E+00  0.62773E-01  0.33001E+00
  0.44504E+00  0.62773E-01  0.33001E+00
  0.47293E+00  0.62773E-01  0.33001E+00
  0.49430E+00  0.62773E-01  0.33001E+00
  0.42366E+00  0.84148E-01  0.33001E+00
  0.44504E+00  0.84148E-01  0.33001E+00
  0.47293E+00  0.84148E-01  0.33001E+00
  0.49430E+00  0.84148E-01  0.33001E+00
  0.42366E+00  0.13508E-01  0.66999E+00
  0.44504E+00  0.13508E-01  0.66999E+00
  0.47293E+00  0.13508E-01  0.66999E+00
  0.49430E+00  0.13508E-01  0.66999E+00
  0.42366E+00  0.34884E-01  0.66999E+00
  0.44504E+00  0.34884E-01  0.66999E+00
  0.47293E+00  0.34884E-01  0.66999E+00
  0.49430E+00  0.34884E-01  0.66999E+00
  0.42366E+00  0.62773E-01  0.66999E+00
  0.44504E+00  0.62773E-01  0.66999E+00
  0.47293E+00  0.62773E-01  0.66999E+00
  0.49430E+00  0.62773E-01  0.66999E+00
  0.42366E+00  0.84148E-01  0.66999E+00
  0.44504E+00  0.84148E-01  0.66999E+00
  0.47293E+00  0.84148E-01  0.66999E+00
  0.49430E+00  0.84148E-01  0.66999E+00
  0.42366E+00  0.13508E-01  0.93057E+00
  0.44504E+00  0.13508E-01  0.93057E+00
  0.47293E+00  0.13508E-01  0.93057E+00
  0.49430E+00  0.13508E-01  0.93057E+00
  0.42366E+00  0.34884E-01  0.93057E+00
  0.44504E+00  0.34884E-01  0.93057E+00
  0.47293E+00  0.34884E-01  0.93057E+00
  0.49430E+00  0.34884E-01  0.93057E+00
  0.42366E+00  0.62773E-01  0.93057E+00
  0.44504E+00  0.62773E-01  0.93057E+00
  0.47293E+00  0.62773E-01  0.93057E+00
  0.49430E+00  0.62773E-01  0.93057E+00
  0.42366E+00  0.84148E-01  0.93057E+00
  0.44504E+00  0.84148E-01  0.93057E+00
  0.47293E+00  0.84148E-01  0.93057E+00
  0.49430E+00  0.84148E-01  0.93057E+00
  0.34163E+00  0.95539E-01  0.69432E-01
  0.36301E+00  0.95539E-01  0.69432E-01
  0.39090E+00  0.95539E-01  0.69432E-01
  0.41227E+00  0.95539E-01  0.69432E-01
  0.34163E+00  0.11691E+00  0.69432E-01
  0.36301E+00  0.11691E+00  0.69432E-01
  0.39090E+00  0.11691E+00  0.69432E-01
  0.41227E+00  0.11691E+00  0.69432E-01
  0.34163E+00  0.14480E+00  0.69432E-01
  0.36301E+00  0.14480E+00  0.69432E-01
  0.39090E+00  0.14480E+00  0.69432E-01
  0.41227E+00  0.14480E+00  0.69432E-01
  0.34163E+00  0.16618E+00  0.69432E-01
  0.36301E+00  0.16618E+00  0.69432E-01
  0.39090E+00  0.16618E+00  0.69432E-01
  0.41227E+00  0.16618E+00  0.69432E-01
  0.34163E+00  0.95539E-01  0.33001E+00
  0.36301E+00  0.95539E-01  0.33001E+00
  0.39090E+00  0.95539E-01  0.33001E+00
  0.41227E+00  0.95539E-01  0.33001E+00
  0.34163E+00  0.11691E+00  0.33001E+00
  0.36301E+00  0.11691E+00  0.33001E+00
  0.39090E+00  0.11691E+00  0.33001E+00
  0.41227E+00  0.11691E+00  0.33001E+00
  0.34163E+00  0.14480E+00  0.33001E+00
  0.36301E+00  0.14480E+00  0.33001E+00
  0.39090E+00  0.14480E+00  0.33001E+00
  0.41227E+00  0.14480E+00  0.33001E+00
  0.34163E+00  0.16618E+00  0.33001E+00
  0.36301E+00  0.16618E+00  0.33001E+00
  0.39090E+00  0.16618E+00  0.33001E+00
  0.41227E+00  0.16618E+00  0.33001E+00
  0.34163E+00  0.95539E-01  0.66999E+00
  0.36301E+00  0.95539E-01  0.66999E+00
  0.39090E+00  0.95539E-01  0.66999E+00
  0.41227E+00  0.95539E-01  0.66999E+00
  0.34163E+00  0.11691E+00  0.66999E+00
  0.36301E+00  0.11691E+00  0.66999E+00
  0.39090E+00  0.11691E+00  0.66999E+00
  0.41227E+00  0.11691E+00  0.66999E+00
  0.34163E+00  0.14480E+00  0.66999E+00
  0.36301E+00  0.14480E+00  0.66999E+00
  0.39090E+00  0.14480E+00  0.66999E+00
  0.41227E+00  0.14480E+00  0.66999E+00
  0.34163E+00  0.16618E+00  0.66999E+00
  0.36301E+00  0.16618E+00  0.66999E+00
  0.39090E+00  0.16618E+00  0.66999E+00
  0.41227E+00  0.16618E+00  0.66999E+00
  0.34163E+00  0.95539E-01  0.93057E+00
  0.36301E+00  0.95539E-01  0.93057E+00
  0.39090E+00  0.95539E-01  0.93057E+00
  0.41227E+00  0.95539E-01  0.93057E+00
  0.34163E+00  0.11691E+00  0.93057E+00
  0.36301E+00  0.11691E+00  0.93057E+00
  0.39090E+00  0.11691E+00  0.93057E+00
  0.41227E+00  0.11691E+00  0.93057E+00
  0.34163E+00  0.14480E+00  0.93057E+00
  0.36301E+00  0.14480E+00  0.93057E+00
  0.39090E+00  0.14480E+00  0.93057E+00
  0.41227E+00  0.14480E+00  0.93057E+00
  0.34163E+00  0.16618E+00  0.93057E+00
  0.36301E+00  0.16618E+00  0.93057E+00
  0.39090E+00  0.16618E+00  0.93057E+00
  0.41227E+00  0.16618E+00  0.93057E+00
  0.42366E+00  0.95539E-01  0.69432E-01
  0.44504E+00  0.95539E-01  0.69432E-01
  0.47293E+00  0.95539E-01  0.69432E-01
  0.49430E+00  0.95539E-01  0.69432E-01
  0.42366E+00  0.11691E+00  0.69432E-01
  0.44504E+00  0.11691E+00  0.69432E-01
  0.47293E+00  0.11691E+00  0.69432E-01
  0.49430E+00  0.11691E+00  0.69432E-01
  0.42366E+00  0.14480E+00  0.69432E-01
  0.44504E+00  0.14480E+00  0.69432E-01
  0.47293E+00  0.14480E+00  0.69432E-01
  0.49430E+00  0.14480E+00  0.69432E-01
  0.42366E+00  0.16618E+00  0.69432E-01
  0.44504E+00  0.16618E+00  0.69432E-01
  0.47293E+00  0.16618E+00  0.69432E-01
  0.49430E+00  0.16618E+00  0.69432E-01
  0.42366E+00  0.95539E-01  0.33001E+00
  0.44504E+00  0.95539E-01  0.33001E+00
  0.47293E+00  0.95539E-01  0.33001E+00
  0.49430E+00  0.95539E-01  0.33001E+00
  0.42366E+00  0.11691E+00  0.33001E+00
  0.44504E+00  0.11691E+00  0.33001E+00
  0.47293E+00  0.11691E+00  0.33001E+00
  0.49430E+00  0.11691E+00  0.33001E+00
  0.42366E+00  0.14480E+00  0.33001E+00
  0.44504E+00  0.14480E+00  0.33001E+00
  0.47293E+00  0.14480E+00  0.33001E+00
  0.49430E+00  0.14480E+00  0.33001E+00
  0.42366E+00  0.16618E+00  0.33001E+00
  0.44504E+00  0.16618E+00  0.33001E+00
  0.47293E+00  0.16618E+00  0.33001E+00
  0.49430E+00  0.16618E+00  0.33001E+00
  0.42366E+00  0.95539E-01  0.66999E+00
  0.44504E+00  0.95539E-01  0.66999E+00
  0.47293E+00  0.95539E-01  0.66999E+00
  0.49430E+00  0.95539E-01  0.66999E+00
  0.42366E+00  0.11691E+00  0.66999E+00
  0.44504E+00  0.11691E+00  0.66999E+00
  0.47293E+00  0.11691E+00  0.66999E+00
  0.49430E+00  0.11691E+00  0.66999E+00
  0.42366E+00  0.14480E+00  0.66999E+00
  0.44504E+00  0.14480E+00  0.66999E+00
  0.47293E+00  0.14480E+00  0.66999E+00
  0.49430E+00  0.14480E+00  0.66999E+00
  0.42366E+00  0.16618E+00  0.66999E+00
  0.44504E+00  0.16618E+00  0.66999E+00
  0.47293E+00  0.16618E+00  0.66999E+00
  0.49430E+00  0.16618E+00  0.66999E+00
  0.42366E+00  0.95539E-01  0.93057E+00
  0.44504E+00  0.95539E-01  0.93057E+00
  0.47293E+00  0.95539E-01  0.93057E+00
  0.49430E+00  0.95539E-01  0.93057E+00
  0.42366E+00  0.11691E+00  0.93057E+00
  0.44504E+00  0.11691E+00  0.93057E+00
  0.47293E+00  0.11691E+00  0.93057E+00
  0.49430E+00  0.11691E+00  0.93057E+00
  0.42366E+00  0.14480E+00  0.93057E+00
  0.44504E+00  0.14480E+00  0.93057E+00
  0.47293E+00  0.14480E+00  0.93057E+00
  0.49430E+00  0.14480E+00  0.93057E+00
  0.42366E+00  0.16618E+00  0.93057E+00
  0.44504E+00  0.16618E+00  0.93057E+00
  0.47293E+00  0.16618E+00  0.93057E+00
  0.49430E+00  0.16618E+00  0.93057E+00
  0.84148E-01  0.22684E+00  0.69432E-01
  0.84148E-01  0.24821E+00  0.69432E-01
  0.84148E-01  0.22684E+00  0.33001E+00
  0.84148E-01  0.24821E+00  0.33001E+00
  0.84148E-01  0.22684E+00  0.66999E+00
  0.84148E-01  0.24821E+00  0.66999E+00
  0.84148E-01  0.22684E+00  0.93057E+00
  0.84148E-01  0.24821E+00  0.93057E+00
  0.14480E+00  0.17757E+00  0.69432E-01
  0.16618E+00  0.17757E+00  0.69432E-01
  0.11691E+00  0.19895E+00  0.69432E-01
  0.14480E+00  0.19895E+00  0.69432E-01
  0.16618E+00  0.19895E+00  0.69432E-01
  0.95539E-01  0.22684E+00  0.69432E-01
  0.11691E+00  0.22684E+00  0.69432E-01
  0.14480E+00  0.22684E+00  0.69432E-01
  0.16618E+00  0.22684E+00  0.69432E-01
  0.95539E-01  0.24821E+00  0.69432E-01
  0.11691E+00  0.24821E+00  0.69432E-01
  0.14480E+00  0.24821E+00  0.69432E-01
  0.16618E+00  0.24821E+00  0.69432E-01
  0.14480E+00  0.17757E+00  0.33001E+00
  0.16618E+00  0.17757E+00  0.33001E+00
  0.11691E+00  0.19895E+00  0.33001E+00
  0.14480E+00  0.19895E+00  0.33001E+00
  0.16618E+00  0.19895E+00  0.33001E+00
  0.95539E-01  0.22684E+00  0.33001E+00
  0.11691E+00  0.22684E+00  0.33001E+00
  0.14480E+00  0.22684E+00  0.33001E+00
  0.16618E+00  0.22684E+00  0.33001E+00
  0.95539E-01  0.24821E+00  0.33001E+00
  0.11691E+00  0.24821E+00  0.33001E+00
  0.14480E+00  0.24821E+00  0.33001E+00
  0.16618E+00  0.24821E+00  0.33001E+00
  0.14480E+00  0.17757E+00  0.66999E+00
  0.16618E+00  0.17757E+00  0.66999E+00
  0.11691E+00  0.19895E+00  0.66999E+00
  0.14480E+00  0.19895E+00  0.66999E+00
  0.16618E+00  0.19895E+00  0.66999E+00
  0.95539E-01  0.22684E+00  0.66999E+00
  0.11691E+00  0.22684E+00  0.66999E+00
  0.14480E+00  0.22684E+00  0.66999E+00
  0.16618E+00  0.22684E+00  0.66999E+00
  0.95539E-01  0.24821E+00  0.66999E+00
  0.11691E+00  0.24821E+00  0.66999E+00
  0.14480E+00  0.24821E+00  0.66999E+00
  0.16618E+00  0.24821E+00  0.66999E+00
  0.14480E+00  0.17757E+00  0.93057E+00
  0.16618E+00  0.17757E+00  0.93057E+00
  0.11691E+00  0.19895E+00  0.93057E+00
  0.14480E+00  0.19895E+00  0.93057E+00
  0.16618E+00  0.19895E+00  0.93057E+00
  0.95539E-01  0.22684E+00  0.93057E+00
  0.11691E+00  0.22684E+00  0.93057E+00
  0.14480E+00  0.22684E+00  0.93057E+00
  0.16618E+00  0.22684E+00  0.93057E+00
  0.95539E-01  0.24821E+00  0.93057E+00
  0.11691E+00  0.24821E+00  0.93057E+00
  0.14480E+00  0.24821E+00  0.93057E+00
  0.16618E+00  0.24821E+00  0.93057E+00
  0.62773E-01  0.25960E+00  0.69432E-01
  0.84148E-01  0.25960E+00  0.69432E-01
  0.62773E-01  0.28098E+00  0.69432E-01
  0.84148E-01  0.28098E+00  0.69432E-01
  0.62773E-01  0.30887E+00  0.69432E-01
  0.84148E-01  0.30887E+00  0.69432E-01
  0.34884E-01  0.33024E+00  0.69432E-01
  0.62773E-01  0.33024E+00  0.69432E-01
  0.84148E-01  0.33024E+00  0.69432E-01
  0.62773E-01  0.25960E+00  0.33001E+00
  0.84148E-01  0.25960E+00  0.33001E+00
  0.62773E-01  0.28098E+00  0.33001E+00
  0.84148E-01  0.28098E+00  0.33001E+00
  0.62773E-01  0.30887E+00  0.33001E+00
  0.84148E-01  0.30887E+00  0.33001E+00
  0.34884E-01  0.33024E+00  0.33001E+00
  0.62773E-01  0.33024E+00  0.33001E+00
  0.84148E-01  0.33024E+00  0.33001E+00
  0.62773E-01  0.25960E+00  0.66999E+00
  0.84148E-01  0.25960E+00  0.66999E+00
  0.62773E-01  0.28098E+00  0.66999E+00
  0.84148E-01  0.28098E+00  0.66999E+00
  0.62773E-01  0.30887E+00  0.66999E+00
  0.84148E-01  0.30887E+00  0.66999E+00
  0.34884E-01  0.33024E+00  0.66999E+00
  0.62773E-01  0.33024E+00  0.66999E+00
  0.84148E-01  0.33024E+00  0.66999E+00
  0.62773E-01  0.25960E+00  0.93057E+00
  0.84148E-01  0.25960E+00  0.93057E+00
  0.62773E-01  0.28098E+00  0.93057E+00
  0.84148E-01  0.28098E+00  0.93057E+00
  0.62773E-01  0.30887E+00  0.93057E+00
  0.84148E-01  0.30887E+00  0.93057E+00
  0.34884E-01  0.33024E+00  0.93057E+00
  0.62773E-01  0.33024E+00  0.93057E+00
  0.84148E-01  0.33024E+00  0.93057E+00
  0.95539E-01  0.25960E+00  0.69432E-01
  0.11691E+00  0.25960E+00  0.69432E-01
  0.14480E+00  0.25960E+00  0.69432E-01
  0.16618E+00  0.25960E+00  0.69432E-01
  0.95539E-01  0.28098E+00  0.69432E-01
  0.11691E+00  0.28098E+00  0.69432E-01
  0.14480E+00  0.28098E+00  0.69432E-01
  0.16618E+00  0.28098E+00  0.69432E-01
  0.95539E-01  0.30887E+00  0.69432E-01
  0.11691E+00  0.30887E+00  0.69432E-01
  0.14480E+00  0.30887E+00  0.69432E-01
  0.16618E+00  0.30887E+00  0.69432E-01
  0.95539E-01  0.33024E+00  0.69432E-01
  0.11691E+00  0.33024E+00  0.69432E-01
  0.14480E+00  0.33024E+00  0.69432E-01
  0.16618E+00  0.33024E+00  0.69432E-01
  0.95539E-01  0.25960E+00  0.33001E+00
  0.11691E+00  0.25960E+00  0.33001E+00
  0.14480E+00  0.25960E+00  0.33001E+00
  0.16618E+00  0.25960E+00  0.33001E+00
  0.95539E-01  0.28098E+00  0.33001E+00
  0.11691E+00  0.28098E+00  0.33001E+00
  0.14480E+00  0.28098E+00  0.33001E+00
  0.16618E+00  0.28098E+00  0.33001E+00
  0.95539E-01  0.30887E+00  0.33001E+00
  0.11691E+00  0.30887E+00  0.33001E+00
  0.14480E+00  0.30887E+00  0.33001E+00
  0.16618E+00  0.30887E+00  0.33001E+00
  0.95539E-01  0.33024E+00  0.33001E+00
  0.11691E+00  0.33024E+00  0.33001E+00
  0.14480E+00  0.33024E+00  0.33001E+00
  0.16618E+00  0.33024E+00  0.33001E+00
  0.95539E-01  0.25960E+00  0.66999E+00
  0.11691E+00  0.25960E+00  0.66999E+00
  0.14480E+00  0.25960E+00  0.66999E+00
  0.16618E+00  0.25960E+00  0.66999E+00
  0.95539E-01  0.28098E+00  0.66999E+00
  0.11691E+00  0.28098E+00  0.66999E+00
  0.14480E+00  0.28098E+00  0.66999E+00
  0.16618E+00  0.28098E+00  0.66999E+00
  0.95539E-01  0.30887E+00  0.66999E+00
  0.11691E+00  0.30887E+00  0.66999E+00
  0.14480E+00  0.30887E+00  0.66999E+00
  0.16618E+00  0.30887E+00  0.66999E+00
  0.95539E-01  0.33024E+00  0.66999E+00
  0.11691E+00  0.33024E+00  0.66999E+00
  0.14480E+00  0.33024E+00  0.66999E+00
  0.16618E+00  0.33024E+00  0.66999E+00
  0.95539E-01  0.25960E+00  0.93057E+00
  0.11691E+00  0.25960E+00  0.93057E+00
  0.14480E+00  0.25960E+00  0.93057E+00
  0.16618E+00  0.25960E+00  0.93057E+00
  0.95539E-01  0.28098E+00  0.93057E+00
  0.11691E+00  0.28098E+00  0.93057E+00
  0.14480E+00  0.28098E+00  0.93057E+00
  0.16618E+00  0.28098E+00  0.93057E+00
  0.95539E-01  0.30887E+00  0.93057E+00
  0.11691E+00  0.30887E+00  0.93057E+00
  0.14480E+00  0.30887E+00  0.93057E+00
  0.16618E+00  0.30887E+00  0.93057E+00
  0.95539E-01  0.33024E+00  0.93057E+00
  0.11691E+00  0.33024E+00  0.93057E+00
  0.14480E+00  0.33024E+00  0.93057E+00
  0.16618E+00  0.33024E+00  0.93057E+00
  0.21169E-02  0.47293E+00  0.69432E-01
  0.21169E-02  0.49430E+00  0.69432E-01
  0.21169E-02  0.47293E+00  0.33001E+00
  0.21169E-02  0.49430E+00  0.33001E+00
  0.21169E-02  0.47293E+00  0.66999E+00
  0.21169E-02  0.49430E+00  0.66999E+00
  0.21169E-02  0.47293E+00  0.93057E+00
  0.21169E-02  0.49430E+00  0.93057E+00
  0.34884E-01  0.34163E+00  0.69432E-01
  0.62773E-01  0.34163E+00  0.69432E-01
  0.84148E-01  0.34163E+00  0.69432E-01
  0.34884E-01  0.36301E+00  0.69432E-01
  0.62773E-01  0.36301E+00  0.69432E-01
  0.84148E-01  0.36301E+00  0.69432E-01
  0.13508E-01  0.39090E+00  0.69432E-01
  0.34884E-01  0.39090E+00  0.69432E-01
  0.62773E-01  0.39090E+00  0.69432E-01
  0.84148E-01  0.39090E+00  0.69432E-01
  0.13508E-01  0.41227E+00  0.69432E-01
  0.34884E-01  0.41227E+00  0.69432E-01
  0.62773E-01  0.41227E+00  0.69432E-01
  0.84148E-01  0.41227E+00  0.69432E-01
  0.34884E-01  0.34163E+00  0.33001E+00
  0.62773E-01  0.34163E+00  0.33001E+00
  0.84148E-01  0.34163E+00  0.33001E+00
  0.34884E-01  0.36301E+00  0.33001E+00
  0.62773E-01  0.36301E+00  0.33001E+00
  0.84148E-01  0.36301E+00  0.33001E+00
  0.13508E-01  0.39090E+00  0.33001E+00
  0.34884E-01  0.39090E+00  0.33001E+00
  0.62773E-01  0.39090E+00  0.33001E+00
  0.84148E-01  0.39090E+00  0.33001E+00
  0.13508E-01  0.41227E+00  0.33001E+00
  0.34884E-01  0.41227E+00  0.33001E+00
  0.62773E-01  0.41227E+00  0.33001E+00
  0.84148E-01  0.41227E+00  0.33001E+00
  0.34884E-01  0.34163E+00  0.66999E+00
  0.62773E-01  0.34163E+00  0.66999E+00
  0.84148E-01  0.34163E+00  0.66999E+00
  0.34884E-01  0.36301E+00  0.66999E+00
  0.62773E-01  0.36301E+00  0.66999E+00
  0.84148E-01  0.36301E+00  0.66999E+00
  0.13508E-01  0.39090E+00  0.66999E+00
  0.34884E-01  0.39090E+00  0.66999E+00
  0.62773E-01  0.39090E+00  0.66999E+00
  0.84148E-01  0.39090E+00  0.66999E+00
  0.13508E-01  0.41227E+00  0.66999E+00
  0.34884E-01  0.41227E+00  0.66999E+00
  0.62773E-01  0.41227E+00  0.66999E+00
  0.84148E-01  0.41227E+00  0.66999E+00
  0.34884E-01  0.34163E+00  0.93057E+00
  0.62773E-01  0.34163E+00  0.93057E+00
  0.84148E-01  0.34163E+00  0.93057E+00
  0.34884E-01  0.36301E+00  0.93057E+00
  0.62773E-01  0.36301E+00  0.93057E+00
  0.84148E-01  0.36301E+00  0.93057E+00
  0.13508E-01  0.39090E+00  0.93057E+00
  0.34884E-01  0.39090E+00  0.93057E+00
  0.62773E-01  0.39090E+00  0.93057E+00
  0.84148E-01  0.39090E+00  0.93057E+00
  0.13508E-01  0.41227E+00  0.93057E+00
  0.34884E-01  0.41227E+00  0.93057E+00
  0.62773E-01  0.41227E+00  0.93057E+00
  0.84148E-01  0.41227E+00  0.93057E+00
  0.95539E-01  0.34163E+00  0.69432E-01
  0.11691E+00  0.34163E+00  0.69432E-01
  0.14480E+00  0.34163E+00  0.69432E-01
  0.16618E+00  0.34163E+00  0.69432E-01
  0.95539E-01  0.36301E+00  0.69432E-01
  0.11691E+00  0.36301E+00  0.69432E-01
  0.14480E+00  0.36301E+00  0.69432E-01
  0.16618E+00  0.36301E+00  0.69432E-01
  0.95539E-01  0.39090E+00  0.69432E-01
  0.11691E+00  0.39090E+00  0.69432E-01
  0.14480E+00  0.39090E+00  0.69432E-01
  0.16618E+00  0.39090E+00  0.69432E-01
  0.95539E-01  0.41227E+00  0.69432E-01
  0.11691E+00  0.41227E+00  0.69432E-01
  0.14480E+00  0.41227E+00  0.69432E-01
  0.16618E+00  0.41227E+00  0.69432E-01
  0.95539E-01  0.34163E+00  0.33001E+00
  0.11691E+00  0.34163E+00  0.33001E+00
  0.14480E+00  0.34163E+00  0.33001E+00
  0.16618E+00  0.34163E+00  0.33001E+00
  0.95539E-01  0.36301E+00  0.33001E+00
  0.11691E+00  0.36301E+00  0.33001E+00
  0.14480E+00  0.36301E+00  0.33001E+00
  0.16618E+00  0.36301E+00  0.33001E+00
  0.95539E-01  0.39090E+00  0.33001E+00
  0.11691E+00  0.39090E+00  0.33001E+00
  0.14480E+00  0.39090E+00  0.33001E+00
  0.16618E+00  0.39090E+00  0.33001E+00
  0.95539E-01  0.41227E+00  0.33001E+00
  0.11691E+00  0.41227E+00  0.33001E+00
  0.14480E+00  0.41227E+00  0.33001E+00
  0.16618E+00  0.41227E+00  0.33001E+00
  0.95539E-01  0.34163E+00  0.66999E+00
  0.11691E+00  0.34163E+00  0.66999E+00
  0.14480E+00  0.34163E+00  0.66999E+00
  0.16618E+00  0.34163E+00  0.66999E+00
  0.95539E-01  0.36301E+00  0.66999E+00
  0.11691E+00  0.36301E+00  0.66999E+00
  0.14480E+00  0.36301E+00  0.66999E+00
  0.16618E+00  0.36301E+00  0.66999E+00
  0.95539E-01  0.39090E+00  0.66999E+00
  0.11691E+00  0.39090E+00  0.66999E+00
  0.14480E+00  0.39090E+00  0.66999E+00
  0.16618E+00  0.39090E+00  0.66999E+00
  0.95539E-01  0.41227E+00  0.66999E+00
  0.11691E+00  0.41227E+00  0.66999E+00
  0.14480E+00  0.41227E+00  0.66999E+00
  0.16618E+00  0.41227E+00  0.66999E+00
  0.95539E-01  0.34163E+00  0.93057E+00
  0.11691E+00  0.34163E+00  0.93057E+00
  0.14480E+00  0.34163E+00  0.93057E+00
  0.16618E+00  0.34163E+00  0.93057E+00
  0.95539E-01  0.36301E+00  0.93057E+00
  0.11691E+00  0.36301E+00  0.93057E+00
  0.14480E+00  0.36301E+00  0.93057E+00
  0.16618E+00  0.36301E+00  0.93057E+00
  0.95539E-01  0.39090E+00  0.93057E+00
  0.11691E+00  0.39090E+00  0.93057E+00
  0.14480E+00  0.39090E+00  0.93057E+00
  0.16618E+00  0.39090E+00  0.93057E+00
  0.95539E-01  0.41227E+00  0.93057E+00
  0.11691E+00  0.41227E+00  0.93057E+00
  0.14480E+00  0.41227E+00  0.93057E+00
  0.16618E+00  0.41227E+00  0.93057E+00
  0.13508E-01  0.42366E+00  0.69432E-01
  0.34884E-01  0.42366E+00  0.69432E-01
  0.62773E-01  0.42366E+00  0.69432E-01
  0.84148E-01  0.42366E+00  0.69432E-01
  0.13508E-01  0.44504E+00  0.69432E-01
  0.34884E-01  0.44504E+00  0.69432E-01
  0.62773E-01  0.44504E+00  0.69432E-01
  0.84148E-01  0.44504E+00  0.69432E-01
  0.13508E-01  0.47293E+00  0.69432E-01
  0.34884E-01  0.47293E+00  0.69432E-01
  0.62773E-01  0.47293E+00  0.69432E-01
  0.84148E-01  0.47293E+00  0.69432E-01
  0.13508E-01  0.49430E+00  0.69432E-01
  0.34884E-01  0.49430E+00  0.69432E-01
  0.62773E-01  0.49430E+00  0.69432E-01
  0.84148E-01  0.49430E+00  0.69432E-01
  0.13508E-01  0.42366E+00  0.33001E+00
  0.34884E-01  0.42366E+00  0.33001E+00
  0.62773E-01  0.42366E+00  0.33001E+00
  0.84148E-01  0.42366E+00  0.33001E+00
  0.13508E-01  0.44504E+00  0.33001E+00
  0.34884E-01  0.44504E+00  0.33001E+00
  0.62773E-01  0.44504E+00  0.33001E+00
  0.84148E-01  0.44504E+00  0.33001E+00
  0.13508E-01  0.47293E+00  0.33001E+00
  0.34884E-01  0.47293E+00  0.33001E+00
  0.62773E-01  0.47293E+00  0.33001E+00
  0.84148E-01  0.47293E+00  0.33001E+00
  0.13508E-01  0.49430E+00  0.33001E+00
  0.34884E-01  0.49430E+00  0.33001E+00
  0.62773E-01  0.49430E+00  0.33001E+00