TITLE = "Mask Points"
VARIABLES = "x","y","z"
ZONE I=460,J=2,K=1, DATAPACKING=POINT
  0.15454E+00  0.15454E+00  0.21132E+00
  0.15454E+00  0.15454E+00  0.78868E+00
  0.27124E+00  0.72509E-01  0.21132E+00
  0.31860E+00  0.72509E-01  0.21132E+00
  0.27124E+00  0.72509E-01  0.78868E+00
  0.31860E+00  0.72509E-01  0.78868E+00
  0.23657E+00  0.10718E+00  0.21132E+00
  0.18921E+00  0.15454E+00  0.21132E+00
  0.23657E+00  0.15454E+00  0.21132E+00
  0.23657E+00  0.10718E+00  0.78868E+00
  0.18921E+00  0.15454E+00  0.78868E+00
  0.23657E+00  0.15454E+00  0.78868E+00
  0.27124E+00  0.10718E+00  0.21132E+00
  0.31860E+00  0.10718E+00  0.21132E+00
  0.27124E+00  0.15454E+00  0.21132E+00
  0.31860E+00  0.15454E+00  0.21132E+00
  0.27124E+00  0.10718E+00  0.78868E+00
  0.31860E+00  0.10718E+00  0.78868E+00
  0.27124E+00  0.15454E+00  0.78868E+00
  0.31860E+00  0.15454E+00  0.78868E+00
  0.35327E+00  0.25148E-01  0.21132E+00
  0.40063E+00  0.25148E-01  0.21132E+00
  0.35327E+00  0.72509E-01  0.21132E+00
  0.40063E+00  0.72509E-01  0.21132E+00
  0.35327E+00  0.25148E-01  0.78868E+00
  0.40063E+00  0.25148E-01  0.78868E+00
  0.35327E+00  0.72509E-01  0.78868E+00
  0.40063E+00  0.72509E-01  0.78868E+00
  0.43530E+00  0.25148E-01  0.21132E+00
  0.48266E+00  0.25148E-01  0.21132E+00
  0.43530E+00  0.72509E-01  0.21132E+00
  0.48266E+00  0.72509E-01  0.21132E+00
  0.43530E+00  0.25148E-01  0.78868E+00
  0.48266E+00  0.25148E-01  0.78868E+00
  0.43530E+00  0.72509E-01  0.78868E+00
  0.48266E+00  0.72509E-01  0.78868E+00
  0.35327E+00  0.10718E+00  0.21132E+00
  0.40063E+00  0.10718E+00  0.21132E+00
  0.35327E+00  0.15454E+00  0.21132E+00
  0.40063E+00  0.15454E+00  0.21132E+00
  0.35327E+00  0.10718E+00  0.78868E+00
  0.40063E+00  0.10718E+00  0.78868E+00
  0.35327E+00  0.15454E+00  0.78868E+00
  0.40063E+00  0.15454E+00  0.78868E+00
  0.43530E+00  0.10718E+00  0.21132E+00
  0.48266E+00  0.10718E+00  0.21132E+00
  0.43530E+00  0.15454E+00  0.21132E+00
  0.48266E+00  0.15454E+00  0.21132E+00
  0.43530E+00  0.10718E+00  0.78868E+00
  0.48266E+00  0.10718E+00  0.78868E+00
  0.43530E+00  0.15454E+00  0.78868E+00
  0.48266E+00  0.15454E+00  0.78868E+00
  0.15454E+00  0.18921E+00  0.21132E+00
  0.10718E+00  0.23657E+00  0.21132E+00
  0.15454E+00  0.23657E+00  0.21132E+00
  0.15454E+00  0.18921E+00  0.78868E+00
  0.10718E+00  0.23657E+00  0.78868E+00
  0.15454E+00  0.23657E+00  0.78868E+00
  0.72509E-01  0.27124E+00  0.21132E+00
  0.72509E-01  0.31860E+00  0.21132E+00
  0.72509E-01  0.27124E+00  0.78868E+00
  0.72509E-01  0.31860E+00  0.78868E+00
  0.10718E+00  0.27124E+00  0.21132E+00
  0.15454E+00  0.27124E+00  0.21132E+00
  0.10718E+00  0.31860E+00  0.21132E+00
  0.15454E+00  0.31860E+00  0.21132E+00
  0.10718E+00  0.27124E+00  0.78868E+00
  0.15454E+00  0.27124E+00  0.78868E+00
  0.10718E+00  0.31860E+00  0.78868E+00
  0.15454E+00  0.31860E+00  0.78868E+00
  0.25148E-01  0.35327E+00  0.21132E+00
  0.72509E-01  0.35327E+00  0.21132E+00
  0.25148E-01  0.40063E+00  0.21132E+00
  0.72509E-01  0.40063E+00  0.21132E+00
  0.25148E-01  0.35327E+00  0.78868E+00
  0.72509E-01  0.35327E+00  0.78868E+00
  0.25148E-01  0.40063E+00  0.78868E+00
  0.72509E-01  0.40063E+00  0.78868E+00
  0.10718E+00  0.35327E+00  0.21132E+00
  0.15454E+00  0.35327E+00  0.21132E+00
  0.10718E+00  0.40063E+00  0.21132E+00
  0.15454E+00  0.40063E+00  0.21132E+00
  0.10718E+00  0.35327E+00  0.78868E+00
  0.15454E+00  0.35327E+00  0.78868E+00
  0.10718E+00  0.40063E+00  0.78868E+00
  0.15454E+00  0.40063E+00  0.78868E+00
  0.25148E-01  0.43530E+00  0.21132E+00
  0.72509E-01  0.43530E+00  0.21132E+00
  0.25148E-01  0.48266E+00  0.21132E+00
  0.72509E-01  0.48266E+00  0.21132E+00
  0.25148E-01  0.43530E+00  0.78868E+00
  0.72509E-01  0.43530E+00  0.78868E+00
  0.25148E-01  0.48266E+00  0.78868E+00
  0.72509E-01  0.48266E+00  0.78868E+00
  0.10718E+00  0.43530E+00  0.21132E+00
  0.15454E+00  0.43530E+00  0.21132E+00
  0.10718E+00  0.48266E+00  0.21132E+00
  0.15454E+00  0.48266E+00  0.21132E+00
  0.10718E+00  0.43530E+00  0.78868E+00
  0.15454E+00  0.43530E+00  0.78868E+00
  0.10718E+00  0.48266E+00  0.78868E+00
  0.15454E+00  0.48266E+00  0.78868E+00
  0.18921E+00  0.18921E+00  0.21132E+00
  0.23657E+00  0.18921E+00  0.21132E+00
  0.18921E+00  0.23657E+00  0.21132E+00
  0.23657E+00  0.23657E+00  0.21132E+00
  0.18921E+00  0.18921E+00  0.78868E+00
  0.23657E+00  0.18921E+00  0.78868E+00
  0.18921E+00  0.23657E+00  0.78868E+00
  0.23657E+00  0.23657E+00  0.78868E+00
  0.27124E+00  0.18921E+00  0.21132E+00
  0.31860E+00  0.18921E+00  0.21132E+00
  0.27124E+00  0.23657E+00  0.21132E+00
  0.31860E+00  0.23657E+00  0.21132E+00
  0.27124E+00  0.18921E+00  0.78868E+00
  0.31860E+00  0.18921E+00  0.78868E+00
  0.27124E+00  0.23657E+00  0.78868E+00
  0.31860E+00  0.23657E+00  0.78868E+00
  0.18921E+00  0.27124E+00  0.21132E+00
  0.23657E+00  0.27124E+00  0.21132E+00
  0.18921E+00  0.31860E+00  0.21132E+00
  0.23657E+00  0.31860E+00  0.21132E+00
  0.18921E+00  0.27124E+00  0.78868E+00
  0.23657E+00  0.27124E+00  0.78868E+00
  0.18921E+00  0.31860E+00  0.78868E+00
  0.23657E+00  0.31860E+00  0.78868E+00
  0.27124E+00  0.27124E+00  0.21132E+00
  0.31860E+00  0.27124E+00  0.21132E+00
  0.27124E+00  0.31860E+00  0.21132E+00
  0.31860E+00  0.31860E+00  0.21132E+00
  0.27124E+00  0.27124E+00  0.78868E+00
  0.31860E+00  0.27124E+00  0.78868E+00
  0.27124E+00  0.31860E+00  0.78868E+00
  0.31860E+00  0.31860E+00  0.78868E+00
  0.35327E+00  0.18921E+00  0.21132E+00
  0.40063E+00  0.18921E+00  0.21132E+00
  0.35327E+00  0.23657E+00  0.21132E+00
  0.40063E+00  0.23657E+00  0.21132E+00
  0.35327E+00  0.18921E+00  0.78868E+00
  0.40063E+00  0.18921E+00  0.78868E+00
  0.35327E+00  0.23657E+00  0.78868E+00
  0.40063E+00  0.23657E+00  0.78868E+00
  0.43530E+00  0.18921E+00  0.21132E+00
  0.48266E+00  0.18921E+00  0.21132E+00
  0.43530E+00  0.23657E+00  0.21132E+00
  0.48266E+00  0.23657E+00  0.21132E+00
  0.43530E+00  0.18921E+00  0.78868E+00
  0.48266E+00  0.18921E+00  0.78868E+00
  0.43530E+00  0.23657E+00  0.78868E+00
  0.48266E+00  0.23657E+00  0.78868E+00
  0.35327E+00  0.27124E+00  0.21132E+00
  0.40063E+00  0.27124E+00  0.21132E+00
  0.35327E+00  0.31860E+00  0.21132E+00
  0.40063E+00  0.31860E+00  0.21132E+00
  0.35327E+00  0.27124E+00  0.78868E+00
  0.40063E+00  0.27124E+00  0.78868E+00
  0.35327E+00  0.31860E+00  0.78868E+00
  0.40063E+00  0.31860E+00  0.78868E+00
  0.43530E+00  0.27124E+00  0.21132E+00
  0.48266E+00  0.27124E+00  0.21132E+00
  0.43530E+00  0.31860E+00  0.21132E+00
  0.48266E+00  0.31860E+00  0.21132E+00
  0.43530E+00  0.27124E+00  0.78868E+00
  0.48266E+00  0.27124E+00  0.78868E+00
  0.43530E+00  0.31860E+00  0.78868E+00
  0.48266E+00  0.31860E+00  0.78868E+00
  0.18921E+00  0.35327E+00  0.21132E+00
  0.23657E+00  0.35327E+00  0.21132E+00
  0.18921E+00  0.40063E+00  0.21132E+00
  0.23657E+00  0.40063E+00  0.21132E+00
  0.18921E+00  0.35327E+00  0.78868E+00
  0.23657E+00  0.35327E+00  0.78868E+00
  0.18921E+00  0.40063E+00  0.78868E+00
  0.23657E+00  0.40063E+00  0.78868E+00
  0.27124E+00  0.35327E+00  0.21132E+00
  0.31860E+00  0.35327E+00  0.21132E+00
  0.27124E+00  0.40063E+00  0.21132E+00
  0.31860E+00  0.40063E+00  0.21132E+00
  0.27124E+00  0.35327E+00  0.78868E+00
  0.31860E+00  0.35327E+00  0.78868E+00
  0.27124E+00  0.40063E+00  0.78868E+00
  0.31860E+00  0.40063E+00  0.78868E+00
  0.18921E+00  0.43530E+00  0.21132E+00
  0.23657E+00  0.43530E+00  0.21132E+00
  0.18921E+00  0.48266E+00  0.21132E+00
  0.23657E+00  0.48266E+00  0.21132E+00
  0.18921E+00  0.43530E+00  0.78868E+00
  0.23657E+00  0.43530E+00  0.78868E+00
  0.18921E+00  0.48266E+00  0.78868E+00
  0.23657E+00  0.48266E+00  0.78868E+00
  0.27124E+00  0.43530E+00  0.21132E+00
  0.31860E+00  0.43530E+00  0.21132E+00
  0.27124E+00  0.48266E+00  0.21132E+00
  0.31860E+00  0.48266E+00  0.21132E+00
  0.27124E+00  0.43530E+00  0.78868E+00
  0.31860E+00  0.43530E+00  0.78868E+00
  0.27124E+00  0.48266E+00  0.78868E+00
  0.31860E+00  0.48266E+00  0.78868E+00
  0.35327E+00  0.35327E+00  0.21132E+00
  0.40063E+00  0.35327E+00  0.21132E+00
  0.35327E+00  0.40063E+00  0.21132E+00
  0.40063E+00  0.40063E+00  0.21132E+00
  0.35327E+00  0.35327E+00  0.78868E+00
  0.40063E+00  0.35327E+00  0.78868E+00
  0.35327E+00  0.40063E+00  0.78868E+00
  0.40063E+00  0.40063E+00  0.78868E+00
  0.43530E+00  0.35327E+00  0.21132E+00
  0.48266E+00  0.35327E+00  0.21132E+00
  0.43530E+00  0.40063E+00  0.21132E+00
  0.48266E+00  0.40063E+00  0.21132E+00
  0.43530E+00  0.35327E+00  0.78868E+00
  0.48266E+00  0.35327E+00  0.78868E+00
  0.43530E+00  0.40063E+00  0.78868E+00
  0.48266E+00  0.40063E+00  0.78868E+00
  0.35327E+00  0.43530E+00  0.21132E+00
  0.40063E+00  0.43530E+00  0.21132E+00
  0.35327E+00  0.48266E+00  0.21132E+00
  0.40063E+00  0.48266E+00  0.21132E+00
  0.35327E+00  0.43530E+00  0.78868E+00
  0.40063E+00  0.43530E+00  0.78868E+00
  0.35327E+00  0.48266E+00  0.78868E+00
  0.40063E+00  0.48266E+00  0.78868E+00
  0.43530E+00  0.43530E+00  0.21132E+00
  0.48266E+00  0.43530E+00  0.21132E+00
  0.43530E+00  0.48266E+00  0.21132E+00
  0.48266E+00  0.48266E+00  0.21132E+00
  0.43530E+00  0.43530E+00  0.78868E+00
  0.48266E+00  0.43530E+00  0.78868E+00
  0.43530E+00  0.48266E+00  0.78868E+00
  0.48266E+00  0.48266E+00  0.78868E+00
  0.51734E+00  0.25148E-01  0.21132E+00
  0.56470E+00  0.25148E-01  0.21132E+00
  0.51734E+00  0.72509E-01  0.21132E+00
  0.56470E+00  0.72509E-01  0.21132E+00
  0.51734E+00  0.25148E-01  0.78868E+00
  0.56470E+00  0.25148E-01  0.78868E+00
  0.51734E+00  0.72509E-01  0.78868E+00
  0.56470E+00  0.72509E-01  0.78868E+00
  0.59937E+00  0.25148E-01  0.21132E+00
  0.64673E+00  0.25148E-01  0.21132E+00
  0.59937E+00  0.72509E-01  0.21132E+00
  0.64673E+00  0.72509E-01  0.21132E+00
  0.59937E+00  0.25148E-01  0.78868E+00
  0.64673E+00  0.25148E-01  0.78868E+00
  0.59937E+00  0.72509E-01  0.78868E+00
  0.64673E+00  0.72509E-01  0.78868E+00
  0.51734E+00  0.10718E+00  0.21132E+00
  0.56470E+00  0.10718E+00  0.21132E+00
  0.51734E+00  0.15454E+00  0.21132E+00
  0.56470E+00  0.15454E+00  0.21132E+00
  0.51734E+00  0.10718E+00  0.78868E+00
  0.56470E+00  0.10718E+00  0.78868E+00
  0.51734E+00  0.15454E+00  0.78868E+00
  0.56470E+00  0.15454E+00  0.78868E+00
  0.59937E+00  0.10718E+00  0.21132E+00
  0.64673E+00  0.10718E+00  0.21132E+00
  0.59937E+00  0.15454E+00  0.21132E+00
  0.64673E+00  0.15454E+00  0.21132E+00
  0.59937E+00  0.10718E+00  0.78868E+00
  0.64673E+00  0.10718E+00  0.78868E+00
  0.59937E+00  0.15454E+00  0.78868E+00
  0.64673E+00  0.15454E+00  0.78868E+00
  0.68140E+00  0.72509E-01  0.21132E+00
  0.72876E+00  0.72509E-01  0.21132E+00
  0.68140E+00  0.72509E-01  0.78868E+00
  0.72876E+00  0.72509E-01  0.78868E+00
  0.68140E+00  0.10718E+00  0.21132E+00
  0.72876E+00  0.10718E+00  0.21132E+00
  0.68140E+00  0.15454E+00  0.21132E+00
  0.72876E+00  0.15454E+00  0.21132E+00
  0.68140E+00  0.10718E+00  0.78868E+00
  0.72876E+00  0.10718E+00  0.78868E+00
  0.68140E+00  0.15454E+00  0.78868E+00
  0.72876E+00  0.15454E+00  0.78868E+00
  0.76343E+00  0.10718E+00  0.21132E+00
  0.76343E+00  0.15454E+00  0.21132E+00
  0.81079E+00  0.15454E+00  0.21132E+00
  0.76343E+00  0.10718E+00  0.78868E+00
  0.76343E+00  0.15454E+00  0.78868E+00
  0.81079E+00  0.15454E+00  0.78868E+00
  0.84546E+00  0.15454E+00  0.21132E+00
  0.84546E+00  0.15454E+00  0.78868E+00
  0.51734E+00  0.18921E+00  0.21132E+00
  0.56470E+00  0.18921E+00  0.21132E+00
  0.51734E+00  0.23657E+00  0.21132E+00
  0.56470E+00  0.23657E+00  0.21132E+00
  0.51734E+00  0.18921E+00  0.78868E+00
  0.56470E+00  0.18921E+00  0.78868E+00
  0.51734E+00  0.23657E+00  0.78868E+00
  0.56470E+00  0.23657E+00  0.78868E+00
  0.59937E+00  0.18921E+00  0.21132E+00
  0.64673E+00  0.18921E+00  0.21132E+00
  0.59937E+00  0.23657E+00  0.21132E+00
  0.64673E+00  0.23657E+00  0.21132E+00
  0.59937E+00  0.18921E+00  0.78868E+00
  0.64673E+00  0.18921E+00  0.78868E+00
  0.59937E+00  0.23657E+00  0.78868E+00
  0.64673E+00  0.23657E+00  0.78868E+00
  0.51734E+00  0.27124E+00  0.21132E+00
  0.56470E+00  0.27124E+00  0.21132E+00
  0.51734E+00  0.31860E+00  0.21132E+00
  0.56470E+00  0.31860E+00  0.21132E+00
  0.51734E+00  0.27124E+00  0.78868E+00
  0.56470E+00  0.27124E+00  0.78868E+00
  0.51734E+00  0.31860E+00  0.78868E+00
  0.56470E+00  0.31860E+00  0.78868E+00
  0.59937E+00  0.27124E+00  0.21132E+00
  0.64673E+00  0.27124E+00  0.21132E+00
  0.59937E+00  0.31860E+00  0.21132E+00
  0.64673E+00  0.31860E+00  0.21132E+00
  0.59937E+00  0.27124E+00  0.78868E+00
  0.64673E+00  0.27124E+00  0.78868E+00
  0.59937E+00  0.31860E+00  0.78868E+00
  0.64673E+00  0.31860E+00  0.78868E+00
  0.68140E+00  0.18921E+00  0.21132E+00
  0.72876E+00  0.18921E+00  0.21132E+00
  0.68140E+00  0.23657E+00  0.21132E+00
  0.72876E+00  0.23657E+00  0.21132E+00
  0.68140E+00  0.18921E+00  0.78868E+00
  0.72876E+00  0.18921E+00  0.78868E+00
  0.68140E+00  0.23657E+00  0.78868E+00
  0.72876E+00  0.23657E+00  0.78868E+00
  0.76343E+00  0.18921E+00  0.21132E+00
  0.81079E+00  0.18921E+00  0.21132E+00
  0.76343E+00  0.23657E+00  0.21132E+00
  0.81079E+00  0.23657E+00  0.21132E+00
  0.76343E+00  0.18921E+00  0.78868E+00
  0.81079E+00  0.18921E+00  0.78868E+00
  0.76343E+00  0.23657E+00  0.78868E+00
  0.81079E+00  0.23657E+00  0.78868E+00
  0.68140E+00  0.27124E+00  0.21132E+00
  0.72876E+00  0.27124E+00  0.21132E+00
  0.68140E+00  0.31860E+00  0.21132E+00
  0.72876E+00  0.31860E+00  0.21132E+00
  0.68140E+00  0.27124E+00  0.78868E+00
  0.72876E+00  0.27124E+00  0.78868E+00
  0.68140E+00  0.31860E+00  0.78868E+00
  0.72876E+00  0.31860E+00  0.78868E+00
  0.76343E+00  0.27124E+00  0.21132E+00
  0.81079E+00  0.27124E+00  0.21132E+00
  0.76343E+00  0.31860E+00  0.21132E+00
  0.81079E+00  0.31860E+00  0.21132E+00
  0.76343E+00  0.27124E+00  0.78868E+00
  0.81079E+00  0.27124E+00  0.78868E+00
  0.76343E+00  0.31860E+00  0.78868E+00
  0.81079E+00  0.31860E+00  0.78868E+00
  0.51734E+00  0.35327E+00  0.21132E+00
  0.56470E+00  0.35327E+00  0.21132E+00
  0.51734E+00  0.40063E+00  0.21132E+00
  0.56470E+00  0.40063E+00  0.21132E+00
  0.51734E+00  0.35327E+00  0.78868E+00
  0.56470E+00  0.35327E+00  0.78868E+00
  0.51734E+00  0.40063E+00  0.78868E+00
  0.56470E+00  0.40063E+00  0.78868E+00
  0.59937E+00  0.35327E+00  0.21132E+00
  0.64673E+00  0.35327E+00  0.21132E+00
  0.59937E+00  0.40063E+00  0.21132E+00
  0.64673E+00  0.40063E+00  0.21132E+00
  0.59937E+00  0.35327E+00  0.78868E+00
  0.64673E+00  0.35327E+00  0.78868E+00
  0.59937E+00  0.40063E+00  0.78868E+00
  0.64673E+00  0.40063E+00  0.78868E+00
  0.51734E+00  0.43530E+00  0.21132E+00
  0.56470E+00  0.43530E+00  0.21132E+00
  0.51734E+00  0.48266E+00  0.21132E+00
  0.56470E+00  0.48266E+00  0.21132E+00
  0.51734E+00  0.43530E+00  0.78868E+00
  0.56470E+00  0.43530E+00  0.78868E+00
  0.51734E+00  0.48266E+00  0.78868E+00
  0.56470E+00  0.48266E+00  0.78868E+00
  0.59937E+00  0.43530E+00  0.21132E+00
  0.64673E+00  0.43530E+00  0.21132E+00
  0.59937E+00  0.48266E+00  0.21132E+00
  0.64673E+00  0.48266E+00  0.21132E+00
  0.59937E+00  0.43530E+00  0.78868E+00
  0.64673E+00  0.43530E+00  0.78868E+00
  0.59937E+00  0.48266E+00  0.78868E+00
  0.64673E+00  0.48266E+00  0.78868E+00
  0.68140E+00  0.35327E+00  0.21132E+00
  0.72876E+00  0.35327E+00  0.21132E+00
  0.68140E+00  0.40063E+00  0.21132E+00
  0.72876E+00  0.40063E+00  0.21132E+00
  0.68140E+00  0.35327E+00  0.78868E+00
  0.72876E+00  0.35327E+00  0.78868E+00
  0.68140E+00  0.40063E+00  0.78868E+00
  0.72876E+00  0.40063E+00  0.78868E+00
  0.76343E+00  0.35327E+00  0.21132E+00
  0.81079E+00  0.35327E+00  0.21132E+00
  0.76343E+00  0.40063E+00  0.21132E+00
  0.81079E+00  0.40063E+00  0.21132E+00
  0.76343E+00  0.35327E+00  0.78868E+00
  0.81079E+00  0.35327E+00  0.78868E+00
  0.76343E+00  0.40063E+00  0.78868E+00
  0.81079E+00  0.40063E+00  0.78868E+00
  0.68140E+00  0.43530E+00  0.21132E+00
  0.72876E+00  0.43530E+00  0.21132E+00
  0.68140E+00  0.48266E+00  0.21132E+00
  0.72876E+00  0.48266E+00  0.21132E+00
  0.68140E+00  0.43530E+00  0.78868E+00
  0.72876E+00  0.43530E+00  0.78868E+00
  0.68140E+00  0.48266E+00  0.78868E+00
  0.72876E+00  0.48266E+00  0.78868E+00
  0.76343E+00  0.43530E+00  0.21132E+00
  0.81079E+00  0.43530E+00  0.21132E+00
  0.76343E+00  0.48266E+00  0.21132E+00
  0.81079E+00  0.48266E+00  0.21132E+00
  0.76343E+00  0.43530E+00  0.78868E+00
  0.81079E+00  0.43530E+00  0.78868E+00
  0.76343E+00  0.48266E+00  0.78868E+00
  0.81079E+00  0.48266E+00  0.78868E+00
  0.84546E+00  0.18921E+00  0.21132E+00
  0.84546E+00  0.23657E+00  0.21132E+00
  0.89282E+00  0.23657E+00  0.21132E+00
  0.84546E+00  0.18921E+00  0.78868E+00
  0.84546E+00  0.23657E+00  0.78868E+00
  0.89282E+00  0.23657E+00  0.78868E+00
  0.84546E+00  0.27124E+00  0.21132E+00
  0.89282E+00  0.27124E+00  0.21132E+00
  0.84546E+00  0.31860E+00  0.21132E+00
  0.89282E+00  0.31860E+00  0.21132E+00
  0.84546E+00  0.27124E+00  0.78868E+00
  0.89282E+00  0.27124E+00  0.78868E+00
  0.84546E+00  0.31860E+00  0.78868E+00
  0.89282E+00  0.31860E+00  0.78868E+00
  0.92749E+00  0.27124E+00  0.21132E+00
  0.92749E+00  0.31860E+00  0.21132E+00
  0.92749E+00  0.27124E+00  0.78868E+00
  0.92749E+00  0.31860E+00  0.78868E+00
  0.84546E+00  0.35327E+00  0.21132E+00
  0.89282E+00  0.35327E+00  0.21132E+00
  0.84546E+00  0.40063E+00  0.21132E+00
  0.89282E+00  0.40063E+00  0.21132E+00
  0.84546E+00  0.35327E+00  0.78868E+00
  0.89282E+00  0.35327E+00  0.78868E+00
  0.84546E+00  0.40063E+00  0.78868E+00
  0.89282E+00  0.40063E+00  0.78868E+00
  0.92749E+00  0.35327E+00  0.21132E+00
  0.97485E+00  0.35327E+00  0.21132E+00
  0.92749E+00  0.40063E+00  0.21132E+00
  0.97485E+00  0.40063E+00  0.21132E+00
  0.92749E+00  0.35327E+00  0.78868E+00
  0.97485E+00  0.35327E+00  0.78868E+00
  0.92749E+00  0.40063E+00  0.78868E+00
  0.97485E+00  0.40063E+00  0.78868E+00
  0.84546E+00  0.43530E+00  0.21132E+00
  0.89282E+00  0.43530E+00  0.21132E+00
  0.84546E+00  0.48266E+00  0.21132E+00
  0.89282E+00  0.48266E+00  0.21132E+00
  0.84546E+00  0.43530E+00  0.78868E+00
  0.89282E+00  0.43530E+00  0.78868E+00
  0.84546E+00  0.48266E+00  0.78868E+00
  0.89282E+00  0.48266E+00  0.78868E+00
  0.92749E+00  0.43530E+00  0.21132E+00
  0.97485E+00  0.43530E+00  0.21132E+00
  0.92749E+00  0.48266E+00  0.21132E+00
  0.97485E+00  0.48266E+00  0.21132E+00
  0.92749E+00  0.43530E+00  0.78868E+00
  0.97485E+00  0.43530E+00  0.78868E+00
  0.92749E+00  0.48266E+00  0.78868E+00
  0.97485E+00  0.48266E+00  0.78868E+00
  0.25148E-01  0.51734E+00  0.21132E+00
  0.72509E-01  0.51734E+00  0.21132E+00
  0.25148E-01  0.56470E+00  0.21132E+00
  0.72509E-01  0.56470E+00  0.21132E+00
  0.25148E-01  0.51734E+00  0.78868E+00
  0.72509E-01  0.51734E+00  0.78868E+00
  0.25148E-01  0.56470E+00  0.78868E+00
  0.72509E-01  0.56470E+00  0.78868E+00
  0.10718E+00  0.51734E+00  0.21132E+00
  0.15454E+00  0.51734E+00  0.21132E+00
  0.10718E+00  0.56470E+00  0.21132E+00
  0.15454E+00  0.56470E+00  0.21132E+00
  0.10718E+00  0.51734E+00  0.78868E+00
  0.15454E+00  0.51734E+00  0.78868E+00
  0.10718E+00  0.56470E+00  0.78868E+00
  0.15454E+00  0.56470E+00  0.78868E+00
  0.25148E-01  0.59937E+00  0.21132E+00
  0.72509E-01  0.59937E+00  0.21132E+00
  0.25148E-01  0.64673E+00  0.21132E+00
  0.72509E-01  0.64673E+00  0.21132E+00
  0.25148E-01  0.59937E+00  0.78868E+00
  0.72509E-01  0.59937E+00  0.78868E+00
  0.25148E-01  0.64673E+00  0.78868E+00
  0.72509E-01  0.64673E+00  0.78868E+00
  0.10718E+00  0.59937E+00  0.21132E+00
  0.15454E+00  0.59937E+00  0.21132E+00
  0.10718E+00  0.64673E+00  0.21132E+00
  0.15454E+00  0.64673E+00  0.21132E+00
  0.10718E+00  0.59937E+00  0.78868E+00
  0.15454E+00  0.59937E+00  0.78868E+00
  0.10718E+00  0.64673E+00  0.78868E+00
  0.15454E+00  0.64673E+00  0.78868E+00
  0.72509E-01  0.68140E+00  0.21132E+00
  0.72509E-01  0.72876E+00  0.21132E+00
  0.72509E-01  0.68140E+00  0.78868E+00
  0.72509E-01  0.72876E+00  0.78868E+00
  0.10718E+00  0.68140E+00  0.21132E+00
  0.15454E+00  0.68140E+00  0.21132E+00
  0.10718E+00  0.72876E+00  0.21132E+00
  0.15454E+00  0.72876E+00  0.21132E+00
  0.10718E+00  0.68140E+00  0.78868E+00
  0.15454E+00  0.68140E+00  0.78868E+00
  0.10718E+00  0.72876E+00  0.78868E+00
  0.15454E+00  0.72876E+00  0.78868E+00
  0.10718E+00  0.76343E+00  0.21132E+00
  0.15454E+00  0.76343E+00  0.21132E+00
  0.15454E+00  0.81079E+00  0.21132E+00
  0.10718E+00  0.76343E+00  0.78868E+00
  0.15454E+00  0.76343E+00  0.78868E+00
  0.15454E+00  0.81079E+00  0.78868E+00
  0.18921E+00  0.51734E+00  0.21132E+00
  0.23657E+00  0.51734E+00  0.21132E+00
  0.18921E+00  0.56470E+00  0.21132E+00
  0.23657E+00  0.56470E+00  0.21132E+00
  0.18921E+00  0.51734E+00  0.78868E+00
  0.23657E+00  0.51734E+00  0.78868E+00
  0.18921E+00  0.56470E+00  0.78868E+00
  0.23657E+00  0.56470E+00  0.78868E+00
  0.27124E+00  0.51734E+00  0.21132E+00
  0.31860E+00  0.51734E+00  0.21132E+00
  0.27124E+00  0.56470E+00  0.21132E+00
  0.31860E+00  0.56470E+00  0.21132E+00
  0.27124E+00  0.51734E+00  0.78868E+00
  0.31860E+00  0.51734E+00  0.78868E+00
  0.27124E+00  0.56470E+00  0.78868E+00
  0.31860E+00  0.56470E+00  0.78868E+00
  0.18921E+00  0.59937E+00  0.21132E+00
  0.23657E+00  0.59937E+00  0.21132E+00
  0.18921E+00  0.64673E+00  0.21132E+00
  0.23657E+00  0.64673E+00  0.21132E+00
  0.18921E+00  0.59937E+00  0.78868E+00
  0.23657E+00  0.59937E+00  0.78868E+00
  0.18921E+00  0.64673E+00  0.78868E+00
  0.23657E+00  0.64673E+00  0.78868E+00
  0.27124E+00  0.59937E+00  0.21132E+00
  0.31860E+00  0.59937E+00  0.21132E+00
  0.27124E+00  0.64673E+00  0.21132E+00
  0.31860E+00  0.64673E+00  0.21132E+00
  0.27124E+00  0.59937E+00  0.78868E+00
  0.31860E+00  0.59937E+00  0.78868E+00
  0.27124E+00  0.64673E+00  0.78868E+00
  0.31860E+00  0.64673E+00  0.78868E+00
  0.35327E+00  0.51734E+00  0.21132E+00
  0.40063E+00  0.51734E+00  0.21132E+00
  0.35327E+00  0.56470E+00  0.21132E+00
  0.40063E+00  0.56470E+00  0.21132E+00
  0.35327E+00  0.51734E+00  0.78868E+00
  0.40063E+00  0.51734E+00  0.78868E+00
  0.35327E+00  0.56470E+00  0.78868E+00
  0.40063E+00  0.56470E+00  0.78868E+00
  0.43530E+00  0.51734E+00  0.21132E+00
  0.48266E+00  0.51734E+00  0.21132E+00
  0.43530E+00  0.56470E+00  0.21132E+00
  0.48266E+00  0.56470E+00  0.21132E+00
  0.43530E+00  0.51734E+00  0.78868E+00
  0.48266E+00  0.51734E+00  0.78868E+00
  0.43530E+00  0.56470E+00  0.78868E+00
  0.48266E+00  0.56470E+00  0.78868E+00
  0.35327E+00  0.59937E+00  0.21132E+00
  0.40063E+00  0.59937E+00  0.21132E+00
  0.35327E+00  0.64673E+00  0.21132E+00
  0.40063E+00  0.64673E+00  0.21132E+00
  0.35327E+00  0.59937E+00  0.78868E+00
  0.40063E+00  0.59937E+00  0.78868E+00
  0.35327E+00  0.64673E+00  0.78868E+00
  0.40063E+00  0.64673E+00  0.78868E+00
  0.43530E+00  0.59937E+00  0.21132E+00
  0.48266E+00  0.59937E+00  0.21132E+00
  0.43530E+00  0.64673E+00  0.21132E+00
  0.48266E+00  0.64673E+00  0.21132E+00
  0.43530E+00  0.59937E+00  0.78868E+00
  0.48266E+00  0.59937E+00  0.78868E+00
  0.43530E+00  0.64673E+00  0.78868E+00
  0.48266E+00  0.64673E+00  0.78868E+00
  0.18921E+00  0.68140E+00  0.21132E+00
  0.23657E+00  0.68140E+00  0.21132E+00
  0.18921E+00  0.72876E+00  0.21132E+00
  0.23657E+00  0.72876E+00  0.21132E+00
  0.18921E+00  0.68140E+00  0.78868E+00
  0.23657E+00  0.68140E+00  0.78868E+00
  0.18921E+00  0.72876E+00  0.78868E+00
  0.23657E+00  0.72876E+00  0.78868E+00
  0.27124E+00  0.68140E+00  0.21132E+00
  0.31860E+00  0.68140E+00  0.21132E+00
  0.27124E+00  0.72876E+00  0.21132E+00
  0.31860E+00  0.72876E+00  0.21132E+00
  0.27124E+00  0.68140E+00  0.78868E+00
  0.31860E+00  0.68140E+00  0.78868E+00
  0.27124E+00  0.72876E+00  0.78868E+00
  0.31860E+00  0.72876E+00  0.78868E+00
  0.18921E+00  0.76343E+00  0.21132E+00
  0.23657E+00  0.76343E+00  0.21132E+00
  0.18921E+00  0.81079E+00  0.21132E+00
  0.23657E+00  0.81079E+00  0.21132E+00
  0.18921E+00  0.76343E+00  0.78868E+00
  0.23657E+00  0.76343E+00  0.78868E+00
  0.18921E+00  0.81079E+00  0.78868E+00
  0.23657E+00  0.81079E+00  0.78868E+00
  0.27124E+00  0.76343E+00  0.21132E+00
  0.31860E+00  0.76343E+00  0.21132E+00
  0.27124E+00  0.81079E+00  0.21132E+00
  0.31860E+00  0.81079E+00  0.21132E+00
  0.27124E+00  0.76343E+00  0.78868E+00
  0.31860E+00  0.76343E+00  0.78868E+00
  0.27124E+00  0.81079E+00  0.78868E+00
  0.31860E+00  0.81079E+00  0.78868E+00
  0.35327E+00  0.68140E+00  0.21132E+00
  0.40063E+00  0.68140E+00  0.21132E+00
  0.35327E+00  0.72876E+00  0.21132E+00
  0.40063E+00  0.72876E+00  0.21132E+00
  0.35327E+00  0.68140E+00  0.78868E+00
  0.40063E+00  0.68140E+00  0.78868E+00
  0.35327E+00  0.72876E+00  0.78868E+00
  0.40063E+00  0.72876E+00  0.78868E+00
  0.43530E+00  0.68140E+00  0.21132E+00
  0.48266E+00  0.68140E+00  0.21132E+00
  0.43530E+00  0.72876E+00  0.21132E+00
  0.48266E+00  0.72876E+00  0.21132E+00
  0.43530E+00  0.68140E+00  0.78868E+00
  0.48266E+00  0.68140E+00  0.78868E+00
  0.43530E+00  0.72876E+00  0.78868E+00
  0.48266E+00  0.72876E+00  0.78868E+00
  0.35327E+00  0.76343E+00  0.21132E+00
  0.40063E+00  0.76343E+00  0.21132E+00
  0.35327E+00  0.81079E+00  0.21132E+00
  0.40063E+00  0.81079E+00  0.21132E+00
  0.35327E+00  0.76343E+00  0.78868E+00
  0.40063E+00  0.76343E+00  0.78868E+00
  0.35327E+00  0.81079E+00  0.78868E+00
  0.40063E+00  0.81079E+00  0.78868E+00
  0.43530E+00  0.76343E+00  0.21132E+00
  0.48266E+00  0.76343E+00  0.21132E+00
  0.43530E+00  0.81079E+00  0.21132E+00
  0.48266E+00  0.81079E+00  0.21132E+00
  0.43530E+00  0.76343E+00  0.78868E+00
  0.48266E+00  0.76343E+00  0.78868E+00
  0.43530E+00  0.81079E+00  0.78868E+00
  0.48266E+00  0.81079E+00  0.78868E+00
  0.15454E+00  0.84546E+00  0.21132E+00
  0.15454E+00  0.84546E+00  0.78868E+00
  0.18921E+00  0.84546E+00  0.21132E+00
  0.23657E+00  0.84546E+00  0.21132E+00
  0.23657E+00  0.89282E+00  0.21132E+00
  0.18921E+00  0.84546E+00  0.78868E+00
  0.23657E+00  0.84546E+00  0.78868E+00
  0.23657E+00  0.89282E+00  0.78868E+00
  0.27124E+00  0.84546E+00  0.21132E+00
  0.31860E+00  0.84546E+00  0.21132E+00
  0.27124E+00  0.89282E+00  0.21132E+00
  0.31860E+00  0.89282E+00  0.21132E+00
  0.27124E+00  0.84546E+00  0.78868E+00
  0.31860E+00  0.84546E+00  0.78868E+00
  0.27124E+00  0.89282E+00  0.78868E+00
  0.31860E+00  0.89282E+00  0.78868E+00
  0.27124E+00  0.92749E+00  0.21132E+00
  0.31860E+00  0.92749E+00  0.21132E+00
  0.27124E+00  0.92749E+00  0.78868E+00
  0.31860E+00  0.92749E+00  0.78868E+00
  0.35327E+00  0.84546E+00  0.21132E+00
  0.40063E+00  0.84546E+00  0.21132E+00
  0.35327E+00  0.89282E+00  0.21132E+00
  0.40063E+00  0.89282E+00  0.21132E+00
  0.35327E+00  0.84546E+00  0.78868E+00
  0.40063E+00  0.84546E+00  0.78868E+00
  0.35327E+00  0.89282E+00  0.78868E+00
  0.40063E+00  0.89282E+00  0.78868E+00
  0.43530E+00  0.84546E+00  0.21132E+00
  0.48266E+00  0.84546E+00  0.21132E+00
  0.43530E+00  0.89282E+00  0.21132E+00
  0.48266E+00  0.89282E+00  0.21132E+00
  0.43530E+00  0.84546E+00  0.78868E+00
  0.48266E+00  0.84546E+00  0.78868E+00
  0.43530E+00  0.89282E+00  0.78868E+00
  0.48266E+00  0.89282E+00  0.78868E+00
  0.35327E+00  0.92749E+00  0.21132E+00
  0.40063E+00  0.92749E+00  0.21132E+00
  0.35327E+00  0.97485E+00  0.21132E+00
  0.40063E+00  0.97485E+00  0.21132E+00
  0.35327E+00  0.92749E+00  0.78868E+00
  0.40063E+00  0.92749E+00  0.78868E+00
  0.35327E+00  0.97485E+00  0.78868E+00
  0.40063E+00  0.97485E+00  0.78868E+00
  0.43530E+00  0.92749E+00  0.21132E+00
  0.48266E+00  0.92749E+00  0.21132E+00
  0.43530E+00  0.97485E+00  0.21132E+00
  0.48266E+00  0.97485E+00  0.21132E+00
  0.43530E+00  0.92749E+00  0.78868E+00
  0.48266E+00  0.92749E+00  0.78868E+00
  0.43530E+00  0.97485E+00  0.78868E+00
  0.48266E+00  0.97485E+00  0.78868E+00
  0.51734E+00  0.51734E+00  0.21132E+00
  0.56470E+00  0.51734E+00  0.21132E+00
  0.51734E+00  0.56470E+00  0.21132E+00
  0.56470E+00  0.56470E+00  0.21132E+00
  0.51734E+00  0.51734E+00  0.78868E+00
  0.56470E+00  0.51734E+00  0.78868E+00
  0.51734E+00  0.56470E+00  0.78868E+00
  0.56470E+00  0.56470E+00  0.78868E+00
  0.59937E+00  0.51734E+00  0.21132E+00
  0.64673E+00  0.51734E+00  0.21132E+00
  0.59937E+00  0.56470E+00  0.21132E+00
  0.64673E+00  0.56470E+00  0.21132E+00
  0.59937E+00  0.51734E+00  0.78868E+00
  0.64673E+00  0.51734E+00  0.78868E+00
  0.59937E+00  0.56470E+00  0.78868E+00
  0.64673E+00  0.56470E+00  0.78868E+00
  0.51734E+00  0.59937E+00  0.21132E+00
  0.56470E+00  0.59937E+00  0.21132E+00
  0.51734E+00  0.64673E+00  0.21132E+00
  0.56470E+00  0.64673E+00  0.21132E+00
  0.51734E+00  0.59937E+00  0.78868E+00
  0.56470E+00  0.59937E+00  0.78868E+00
  0.51734E+00  0.64673E+00  0.78868E+00
  0.56470E+00  0.64673E+00  0.78868E+00
  0.59937E+00  0.59937E+00  0.21132E+00
  0.64673E+00  0.59937E+00  0.21132E+00
  0.59937E+00  0.64673E+00  0.21132E+00
  0.64673E+00  0.64673E+00  0.21132E+00
  0.59937E+00  0.59937E+00  0.78868E+00
  0.64673E+00  0.59937E+00  0.78868E+00
  0.59937E+00  0.64673E+00  0.78868E+00
  0.64673E+00  0.64673E+00  0.78868E+00
  0.68140E+00  0.51734E+00  0.21132E+00
  0.72876E+00  0.51734E+00  0.21132E+00
  0.68140E+00  0.56470E+00  0.21132E+00
  0.72876E+00  0.56470E+00  0.21132E+00
  0.68140E+00  0.51734E+00  0.78868E+00
  0.72876E+00  0.51734E+00  0.78868E+00
  0.68140E+00  0.56470E+00  0.78868E+00
  0.72876E+00  0.56470E+00  0.78868E+00
  0.76343E+00  0.51734E+00  0.21132E+00
  0.81079E+00  0.51734E+00  0.21132E+00
  0.76343E+00  0.56470E+00  0.21132E+00
  0.81079E+00  0.56470E+00  0.21132E+00
  0.76343E+00  0.51734E+00  0.78868E+00
  0.81079E+00  0.51734E+00  0.78868E+00
  0.76343E+00  0.56470E+00  0.78868E+00
  0.81079E+00  0.56470E+00  0.78868E+00
  0.68140E+00  0.59937E+00  0.21132E+00
  0.72876E+00  0.59937E+00  0.21132E+00
  0.68140E+00  0.64673E+00  0.21132E+00
  0.72876E+00  0.64673E+00  0.21132E+00
  0.68140E+00  0.59937E+00  0.78868E+00
  0.72876E+00  0.59937E+00  0.78868E+00
  0.68140E+00  0.64673E+00  0.78868E+00
  0.72876E+00  0.64673E+00  0.78868E+00
  0.76343E+00  0.59937E+00  0.21132E+00