TITLE = "Generated from ../MESH/Convergence_0000000000.hmesh and Convergence_0000007900.hsol"
VARIABLES = "x","y","z","veloT_x","veloT_y","veloT_z","slr_4","velo_x","velo_y","velo_z"
ZONE I=6, J=6, K=1, F=POINT
  0.4000000000E+00  0.1000000000E+01  0.0000000000E+00 -0.2490299781E-02  0.2597266528E-19  0.7649160991E-02  0.6894836561E+15  0.8404706167E-02  0.3535346409E-19  0.6790660876E-02
  0.3530110648E+00  0.1000000000E+01  0.0000000000E+00  0.9719381411E-02  0.1287026534E-20 -0.3128413630E-03  0.6894836561E+15  0.1877535867E-01  0.2834990238E-20 -0.7304652083E-03
  0.2570463033E+00  0.1000000000E+01  0.0000000000E+00  0.9427177418E-02 -0.2461057464E-20  0.2175954297E-02  0.6894836561E+15  0.1545091356E-01 -0.1700450149E-20  0.1730492649E-02
  0.1429536967E+00  0.1000000000E+01  0.0000000000E+00  0.7807090521E-02 -0.7725701135E-21 -0.1195011264E-02  0.6894836561E+15  0.1266528729E-01 -0.9824214820E-21 -0.1018112615E-02
  0.4698893521E-01  0.1000000000E+01  0.0000000000E+00  0.8163613820E-02 -0.3239877079E-20  0.1606232368E-02  0.6894836561E+15  0.1196314520E-01 -0.1979680680E-20  0.5858776560E-03
  0.0000000000E+00  0.1000000000E+01  0.0000000000E+00 -0.7256085097E-02  0.1794622787E-22  0.1574441726E-02  0.6894836561E+15 -0.6397619882E-02 -0.1110650557E-23  0.8343864080E-03
  0.4000000000E+00  0.1000000000E+01  0.4698893521E-01  0.2754632015E+00  0.3483673443E-17  0.5838273413E-01  0.6894836561E+15  0.3303590950E+00  0.3171845039E-17  0.3342638226E-01
  0.3530110648E+00  0.1000000000E+01  0.4698893521E-01  0.1358288978E+00  0.2991971360E-17  0.8555591991E-01  0.6894836561E+15  0.1837398747E+00  0.2522279021E-17  0.5518205742E-01
  0.2570463033E+00  0.1000000000E+01  0.4698893521E-01  0.1042551513E+00  0.1468224097E-17  0.5288735114E-01  0.6894836561E+15  0.1392468068E+00  0.1374467577E-17  0.2049794035E-01
  0.1429536967E+00  0.1000000000E+01  0.4698893521E-01  0.1035797676E-01  0.4867199231E-18  0.3146871240E-01  0.6894836561E+15  0.3994506252E-01  0.5449803402E-18 -0.4314361813E-02
  0.4698893521E-01  0.1000000000E+01  0.4698893521E-01  0.4031849750E-02  0.1046315191E-18  0.2112506599E-02  0.6894836561E+15  0.2406604140E-01  0.1394025384E-18 -0.2529665686E-01
  0.0000000000E+00  0.1000000000E+01  0.4698893521E-01 -0.1793623929E-01  0.8651650775E-21 -0.3236508786E-02  0.6894836561E+15 -0.1696751401E-01  0.4041238315E-21 -0.7345113741E-02
  0.4000000000E+00  0.1000000000E+01  0.1429536967E+00  0.6675054920E+00  0.1109742052E-16 -0.1949500289E-01  0.6894836561E+15  0.7387523471E+00  0.1204945210E-16 -0.3338079800E-01
  0.3530110648E+00  0.1000000000E+01  0.1429536967E+00  0.4077591092E+00  0.6234053732E-17 -0.6239817277E-01  0.6894836561E+15  0.4588508090E+00  0.6316743080E-17 -0.7963942402E-01
  0.2570463033E+00  0.1000000000E+01  0.1429536967E+00  0.2839890518E+00  0.3286358565E-17 -0.2044398857E-01  0.6894836561E+15  0.3275953357E+00  0.3281715707E-17 -0.4559006667E-01
  0.1429536967E+00  0.1000000000E+01  0.1429536967E+00  0.8547875848E-01  0.1377433523E-17 -0.5962169005E-01  0.6894836561E+15  0.1152400835E+00  0.1356365307E-17 -0.9677627664E-01
  0.4698893521E-01  0.1000000000E+01  0.1429536967E+00  0.3558312506E-01  0.3046812805E-18  0.3694289643E-02  0.6894836561E+15  0.3961690523E-01  0.4426188207E-18 -0.2504032461E-01
  0.0000000000E+00  0.1000000000E+01  0.1429536967E+00 -0.2143892783E-01 -0.3960885964E-21 -0.8339426828E-02  0.6894836561E+15 -0.2181424564E-01 -0.2531455807E-20 -0.1197039810E-01
  0.4000000000E+00  0.1000000000E+01  0.2570463033E+00  0.8382971862E+00  0.5450366320E-17 -0.3791570405E+00  0.6894836561E+15  0.9504401519E+00  0.5551195394E-17 -0.3665188367E+00
  0.3530110648E+00  0.1000000000E+01  0.2570463033E+00  0.6611934775E+00  0.5724453628E-17 -0.4062792042E+00  0.6894836561E+15  0.7312597022E+00  0.5572547762E-17 -0.4168678388E+00
  0.2570463033E+00  0.1000000000E+01  0.2570463033E+00  0.4256870561E+00  0.3065411934E-17 -0.2615660476E+00  0.6894836561E+15  0.4821407400E+00  0.3074862543E-17 -0.2859842388E+00
  0.1429536967E+00  0.1000000000E+01  0.2570463033E+00  0.2003140918E+00  0.2077066884E-17 -0.2513505699E+00  0.6894836561E+15  0.2300306736E+00  0.2082074344E-17 -0.2766309562E+00
  0.4698893521E-01  0.1000000000E+01  0.2570463033E+00  0.9549488481E-01  0.1305320251E-17 -0.4718312874E-01  0.6894836561E+15  0.8583282405E-01  0.1103217892E-17 -0.6282895739E-01
  0.0000000000E+00  0.1000000000E+01  0.2570463033E+00 -0.1417861099E-01 -0.2805733614E-20 -0.7619455550E-02  0.6894836561E+15 -0.1453090131E-01 -0.7469029338E-21 -0.7702939384E-02
  0.4000000000E+00  0.1000000000E+01  0.3530110648E+00  0.9520134408E+00  0.5349564036E-17 -0.6741854531E+00  0.6894836561E+15  0.1144856872E+01  0.5219638122E-17 -0.7169834951E+00
  0.3530110648E+00  0.1000000000E+01  0.3530110648E+00  0.7546434499E+00  0.4792323548E-17 -0.6717186893E+00  0.6894836561E+15  0.8533226510E+00  0.4744541872E-17 -0.7286885348E+00
  0.2570463033E+00  0.1000000000E+01  0.3530110648E+00  0.4997417174E+00  0.9809543088E-18 -0.4956208939E+00  0.6894836561E+15  0.5524631835E+00  0.1721773590E-17 -0.5465945534E+00
  0.1429536967E+00  0.1000000000E+01  0.3530110648E+00  0.2663907676E+00  0.1891252162E-17 -0.4105937990E+00  0.6894836561E+15  0.2842178868E+00  0.2174187724E-17 -0.4431587688E+00
  0.4698893521E-01  0.1000000000E+01  0.3530110648E+00  0.1357627077E+00  0.7257284142E-18 -0.1221013378E+00  0.6894836561E+15  0.1107762478E+00  0.8247600932E-18 -0.1333276925E+00
  0.0000000000E+00  0.1000000000E+01  0.3530110648E+00 -0.1438686245E-01  0.8141673883E-20 -0.8936362964E-02  0.6894836561E+15 -0.1491703343E-01  0.7467081075E-20 -0.5727404510E-02
  0.4000000000E+00  0.1000000000E+01  0.4000000000E+00  0.9991980110E+00  0.6804830521E-17 -0.7995727773E+00  0.6894836561E+15  0.1188084996E+01  0.6885070132E-17 -0.9208201596E+00
  0.3530110648E+00  0.1000000000E+01  0.4000000000E+00  0.8367155969E+00  0.5499296631E-17 -0.8056579128E+00  0.6894836561E+15  0.9257652292E+00  0.5556725023E-17 -0.8890177282E+00
  0.2570463033E+00  0.1000000000E+01  0.4000000000E+00  0.5400206628E+00  0.2993381932E-17 -0.6228560401E+00  0.6894836561E+15  0.5844101489E+00  0.2896068982E-17 -0.6709651211E+00
  0.1429536967E+00  0.1000000000E+01  0.4000000000E+00  0.3117697205E+00  0.2764214111E-17 -0.4998733890E+00  0.6894836561E+15  0.3194883075E+00  0.2426060570E-17 -0.5262185383E+00
  0.4698893521E-01  0.1000000000E+01  0.4000000000E+00  0.1530465992E+00  0.6454336905E-18 -0.1600382032E+00  0.6894836561E+15  0.1179285738E+00  0.6493450035E-18 -0.1631073465E+00
  0.0000000000E+00  0.1000000000E+01  0.4000000000E+00 -0.6682834450E-02  0.7394438613E-20 -0.1006235479E-01  0.6894836561E+15 -0.7586247649E-02  0.6091029930E-20 -0.4333129856E-02
ZONE I=6, J=6, K=1, F=POINT
  0.8000000000E+00  0.1000000000E+01  0.0000000000E+00  0.3213527864E-01 -0.1004289379E-18 -0.1158404923E-01  0.6894836561E+15  0.5901016585E-01 -0.7904793622E-19 -0.1239334880E-01
  0.7530110648E+00  0.1000000000E+01  0.0000000000E+00  0.1704526389E-01  0.3774303451E-18  0.6066743724E-02  0.6894836561E+15  0.4161940355E-01  0.9687966855E-18  0.5363443615E-02
  0.6570463033E+00  0.1000000000E+01  0.0000000000E+00  0.1421139301E-01  0.2221328747E-18  0.1068394144E-03  0.6894836561E+15  0.3450724263E-01  0.4782471096E-18 -0.6485097130E-03
  0.5429536967E+00  0.1000000000E+01  0.0000000000E+00  0.1283019636E-01  0.3444263221E-18  0.6783638712E-02  0.6894836561E+15  0.2920148530E-01  0.7637908817E-18  0.5865120120E-02
  0.4469889352E+00  0.1000000000E+01  0.0000000000E+00  0.7957470761E-02  0.2608905487E-18  0.4573268622E-03  0.6894836561E+15  0.2108174804E-01  0.6632546219E-18 -0.3432876016E-03
  0.4000000000E+00  0.1000000000E+01  0.0000000000E+00  0.2451417462E-01  0.2939397566E-19  0.7339476617E-02  0.6894836561E+15  0.3540322503E-01  0.3864900931E-19  0.6483876666E-02
  0.8000000000E+00  0.1000000000E+01  0.4698893521E-01  0.3943768031E+00 -0.2206575206E-16  0.1177675829E+00  0.6894836561E+15  0.5017548661E+00 -0.2332856310E-16  0.1120471015E+00
  0.7530110648E+00  0.1000000000E+01  0.4698893521E-01  0.5848870209E+00 -0.2043497288E-16  0.6364895523E-01  0.6894836561E+15  0.6818131122E+00 -0.2593842804E-16  0.5621740786E-01
  0.6570463033E+00  0.1000000000E+01  0.4698893521E-01  0.3483980023E+00 -0.3796894176E-17  0.9623381075E-01  0.6894836561E+15  0.4303332937E+00 -0.2806913569E-17  0.9870179400E-01
  0.5429536967E+00  0.1000000000E+01  0.4698893521E-01  0.3567404316E+00  0.4685253274E-17  0.1053262100E+00  0.6894836561E+15  0.4289378398E+00  0.5916455792E-17  0.1097304608E+00
  0.4469889352E+00  0.1000000000E+01  0.4698893521E-01  0.2148762429E+00  0.4409511389E-17  0.1075678978E+00  0.6894836561E+15  0.2786245362E+00  0.4032233000E-17  0.9406865691E-01
  0.4000000000E+00  0.1000000000E+01  0.4698893521E-01  0.3173292168E+00  0.3246994505E-17  0.5763667032E-01  0.6894836561E+15  0.3730646198E+00  0.2923160353E-17  0.3267530228E-01
  0.8000000000E+00  0.1000000000E+01  0.1429536967E+00  0.1324425792E+01 -0.5207200789E-16 -0.3035118244E+00  0.6894836561E+15  0.1446218392E+01 -0.4870703794E-16 -0.2481314641E+00
  0.7530110648E+00  0.1000000000E+01  0.1429536967E+00  0.1597316745E+01 -0.3136605332E-16 -0.1492149358E+00  0.6894836561E+15  0.1700581481E+01 -0.3239758904E-16 -0.1011689122E+00
  0.6570463033E+00  0.1000000000E+01  0.1429536967E+00  0.1098002262E+01 -0.2680237962E-18 -0.1331411305E+00  0.6894836561E+15  0.1184551287E+01 -0.3755773716E-17 -0.1018633120E+00
  0.5429536967E+00  0.1000000000E+01  0.1429536967E+00  0.9544495486E+00  0.1083004249E-16  0.2144797246E-01  0.6894836561E+15  0.1041218403E+01  0.1331991057E-16  0.3140274493E-01
  0.4469889352E+00  0.1000000000E+01  0.1429536967E+00  0.6055742449E+00  0.1030572568E-16 -0.4680708770E-01  0.6894836561E+15  0.6880399389E+00  0.9769627071E-17 -0.5398960005E-01
  0.4000000000E+00  0.1000000000E+01  0.1429536967E+00  0.7184542349E+00  0.1178498882E-16 -0.1891662676E-01  0.6894836561E+15  0.7903180883E+00  0.1277107531E-16 -0.3281563352E-01
  0.8000000000E+00  0.1000000000E+01  0.2570463033E+00  0.2581579661E+01 -0.9364165530E-17 -0.9825440512E+00  0.6894836561E+15  0.2718387861E+01 -0.9050688027E-17 -0.8949299540E+00
  0.7530110648E+00  0.1000000000E+01  0.2570463033E+00  0.2411762083E+01 -0.3625672156E-17 -0.7230499669E+00  0.6894836561E+15  0.2530971085E+01 -0.3051535505E-17 -0.6401618530E+00
  0.6570463033E+00  0.1000000000E+01  0.2570463033E+00  0.1847459305E+01 -0.2397694726E-18 -0.6553703054E+00  0.6894836561E+15  0.1937159043E+01 -0.2729387694E-17 -0.5566516155E+00
  0.5429536967E+00  0.1000000000E+01  0.2570463033E+00  0.1360571490E+01  0.4662700783E-17 -0.3818209843E+00  0.6894836561E+15  0.1471572482E+01  0.6482934295E-17 -0.2664364009E+00
  0.4469889352E+00  0.1000000000E+01  0.2570463033E+00  0.9274344150E+00  0.6872093164E-17 -0.4487858074E+00  0.6894836561E+15  0.1062599583E+01  0.7439495988E-17 -0.3944167660E+00
  0.4000000000E+00  0.1000000000E+01  0.2570463033E+00  0.8689912146E+00  0.5472101180E-17 -0.3784700410E+00  0.6894836561E+15  0.9815653269E+00  0.5588778010E-17 -0.3658778953E+00
  0.8000000000E+00  0.1000000000E+01  0.3530110648E+00  0.2989670321E+01  0.3348785638E-17 -0.1510922981E+01  0.6894836561E+15  0.3144001109E+01  0.3153343739E-17 -0.1505120394E+01
  0.7530110648E+00  0.1000000000E+01  0.3530110648E+00  0.2844414206E+01  0.4931238037E-17 -0.1271645446E+01  0.6894836561E+15  0.2966397474E+01  0.1171525292E-16 -0.1279616138E+01
  0.6570463033E+00  0.1000000000E+01  0.3530110648E+00  0.2200274280E+01 -0.2532729585E-17 -0.1043206547E+01  0.6894836561E+15  0.2231713035E+01 -0.3847979032E-17 -0.1023704752E+01
  0.5429536967E+00  0.1000000000E+01  0.3530110648E+00  0.1600427793E+01 -0.1532789841E-17 -0.6762849404E+00  0.6894836561E+15  0.1727984999E+01 -0.9969694234E-17 -0.5995762155E+00
  0.4469889352E+00  0.1000000000E+01  0.3530110648E+00  0.1061721417E+01  0.3349002883E-17 -0.7171715902E+00  0.6894836561E+15  0.1315891328E+01  0.3998522622E-17 -0.7132700187E+00
  0.4000000000E+00  0.1000000000E+01  0.3530110648E+00  0.9855100592E+00  0.5351651396E-17 -0.6739474992E+00  0.6894836561E+15  0.1177698733E+01  0.5189568696E-17 -0.7166435421E+00
  0.8000000000E+00  0.1000000000E+01  0.4000000000E+00  0.3141266366E+01 -0.4976088360E-17 -0.1845936222E+01  0.6894836561E+15  0.3312944845E+01 -0.4982396256E-17 -0.1914061763E+01
  0.7530110648E+00  0.1000000000E+01  0.4000000000E+00  0.2871108935E+01 -0.2876160330E-17 -0.1525200772E+01  0.6894836561E+15  0.3015888102E+01 -0.1781209535E-17 -0.1629353414E+01
  0.6570463033E+00  0.1000000000E+01  0.4000000000E+00  0.2246243476E+01  0.2121998185E-17 -0.1207344499E+01  0.6894836561E+15  0.2259901443E+01  0.1874153638E-17 -0.1365834103E+01
  0.5429536967E+00  0.1000000000E+01  0.4000000000E+00  0.1649911327E+01  0.1182087694E-16 -0.7766305851E+00  0.6894836561E+15  0.1776114342E+01  0.1309270549E-16 -0.9153295291E+00
  0.4469889352E+00  0.1000000000E+01  0.4000000000E+00  0.1216655292E+01  0.7234419020E-17 -0.8258410459E+00  0.6894836561E+15  0.1504150088E+01  0.1450750868E-16 -0.9666669819E+00
  0.4000000000E+00  0.1000000000E+01  0.4000000000E+00  0.1011569762E+01  0.6846645105E-17 -0.7987580100E+00  0.6894836561E+15  0.1199510820E+01  0.6887606988E-17 -0.9198224761E+00
ZONE I=6, J=6, K=1, F=POINT
  0.1200000000E+01  0.1000000000E+01  0.0000000000E+00 -0.2574416233E-01  0.4322787147E-19  0.3733041301E-01  0.6894836561E+15  0.1620616181E-01  0.6623231808E-19  0.3696305600E-01
  0.1153011065E+01  0.1000000000E+01  0.0000000000E+00  0.2422287441E-02  0.1287702498E-20 -0.9208963102E-02  0.6894836561E+15  0.4346786434E-01  0.1966984615E-17 -0.9473792040E-02
  0.1057046303E+01  0.1000000000E+01  0.0000000000E+00  0.1187811450E-01  0.2765438512E-18  0.6256194562E-02  0.6894836561E+15  0.5007204336E-01  0.1258422498E-17  0.5814264358E-02
  0.9429536967E+00  0.1000000000E+01  0.0000000000E+00  0.9657224784E-02 -0.2793368164E-19 -0.8131434374E-02  0.6894836561E+15  0.4345827538E-01  0.1410187985E-19 -0.8527172005E-02
  0.8469889352E+00  0.1000000000E+01  0.0000000000E+00  0.1668316415E-01 -0.3090113992E-19  0.5520290114E-02  0.6894836561E+15  0.4627768333E-01 -0.3069028016E-19  0.4833125635E-02
  0.8000000000E+00  0.1000000000E+01  0.0000000000E+00 -0.1322919538E-01 -0.1106192745E-18 -0.1101916417E-01  0.6894836561E+15  0.1375507524E-01 -0.8633670681E-19 -0.1184882639E-01
  0.1200000000E+01  0.1000000000E+01  0.4698893521E-01  0.2309625762E+01 -0.3924291252E-16 -0.2149526970E+00  0.6894836561E+15  0.2448417721E+01 -0.4541950767E-16 -0.1269419415E+00
  0.1153011065E+01  0.1000000000E+01  0.4698893521E-01  0.1611113222E+01 -0.2362666733E-16 -0.5655581552E-01  0.6894836561E+15  0.1750950974E+01 -0.2810587501E-16  0.2095088312E-01
  0.1057046303E+01  0.1000000000E+01  0.4698893521E-01  0.1465888755E+01 -0.1212014169E-16 -0.5879024124E-01  0.6894836561E+15  0.1600683265E+01 -0.1042648603E-16 -0.5487309368E-02
  0.9429536967E+00  0.1000000000E+01  0.4698893521E-01  0.8411905435E+00 -0.1204495321E-16 -0.1130018876E-01  0.6894836561E+15  0.9675790124E+00 -0.1550068129E-16  0.1579744103E-01
  0.8469889352E+00  0.1000000000E+01  0.4698893521E-01  0.7263876646E+00 -0.2460052315E-16  0.2081433387E-01  0.6894836561E+15  0.8430953112E+00 -0.2978611679E-16  0.2365224637E-01
  0.8000000000E+00  0.1000000000E+01  0.4698893521E-01  0.3332403645E+00 -0.2134958448E-16  0.1197966334E+00  0.6894836561E+15  0.4409959808E+00 -0.2264916708E-16  0.1140395731E+00
  0.1200000000E+01  0.1000000000E+01  0.1429536967E+00  0.5530471732E+01 -0.5755596465E-16 -0.6725983245E+00  0.6894836561E+15  0.5690371807E+01 -0.6162255200E-16 -0.5287576381E+00
  0.1153011065E+01  0.1000000000E+01  0.1429536967E+00  0.4048068989E+01 -0.7367159056E-16 -0.8763857449E+00  0.6894836561E+15  0.4214134957E+01 -0.6528647695E-16 -0.7405556181E+00
  0.1057046303E+01  0.1000000000E+01  0.1429536967E+00  0.3622375987E+01 -0.3592166510E-16 -0.6379257402E+00  0.6894836561E+15  0.3781282884E+01 -0.3622221884E-16 -0.5235073427E+00
  0.9429536967E+00  0.1000000000E+01  0.1429536967E+00  0.2305760881E+01 -0.3122376467E-16 -0.7105603308E+00  0.6894836561E+15  0.2458662521E+01 -0.3124270510E-16 -0.6205010893E+00
  0.8469889352E+00  0.1000000000E+01  0.1429536967E+00  0.1972343318E+01 -0.4581409970E-16 -0.3325166829E+00  0.6894836561E+15  0.2116496969E+01 -0.4940013797E-16 -0.2669804941E+00
  0.8000000000E+00  0.1000000000E+01  0.1429536967E+00  0.1240034413E+01 -0.5435698802E-16 -0.3052065153E+00  0.6894836561E+15  0.1363477881E+01 -0.5094599333E-16 -0.2497553529E+00
  0.1200000000E+01  0.1000000000E+01  0.2570463033E+00  0.6165538195E+01 -0.1227171956E-16 -0.1801245806E+01  0.6894836561E+15  0.6327192438E+01 -0.1216733002E-16 -0.1666268009E+01
  0.1153011065E+01  0.1000000000E+01  0.2570463033E+00  0.5586550409E+01 -0.2588211471E-16 -0.2066601119E+01  0.6894836561E+15  0.5767689287E+01 -0.4325503290E-16 -0.1936267410E+01
  0.1057046303E+01  0.1000000000E+01  0.2570463033E+00  0.4674599215E+01 -0.3105328739E-16 -0.1686610702E+01  0.6894836561E+15  0.4856876958E+01 -0.3078064601E-16 -0.1574027235E+01
  0.9429536967E+00  0.1000000000E+01  0.2570463033E+00  0.3612410527E+01 -0.2087817179E-16 -0.1718190326E+01  0.6894836561E+15  0.3782134201E+01 -0.2997570699E-16 -0.1628875708E+01
  0.8469889352E+00  0.1000000000E+01  0.2570463033E+00  0.2982090149E+01 -0.1239987466E-16 -0.1063029127E+01  0.6894836561E+15  0.3138346413E+01 -0.6177492818E-17 -0.9744412031E+00
  0.8000000000E+00  0.1000000000E+01  0.2570463033E+00  0.2543502989E+01 -0.9410798148E-17 -0.9852382055E+00  0.6894836561E+15  0.2681666909E+01 -0.9174041074E-17 -0.8971923966E+00
  0.1200000000E+01  0.1000000000E+01  0.3530110648E+00  0.6731506575E+01  0.1983202802E-16 -0.2954180677E+01  0.6894836561E+15  0.6909270306E+01  0.1980505301E-16 -0.2829960444E+01
  0.1153011065E+01  0.1000000000E+01  0.3530110648E+00  0.5948642478E+01  0.5948945155E-17 -0.2918428755E+01  0.6894836561E+15  0.6145804951E+01  0.3411635240E-17 -0.2805112251E+01
  0.1057046303E+01  0.1000000000E+01  0.3530110648E+00  0.5115533140E+01 -0.1351626345E-16 -0.2589965569E+01  0.6894836561E+15  0.5329923556E+01 -0.1496179943E-16 -0.2507409243E+01
  0.9429536967E+00  0.1000000000E+01  0.3530110648E+00  0.4042803545E+01 -0.1153122789E-16 -0.2372242599E+01  0.6894836561E+15  0.4230291583E+01 -0.1806861062E-16 -0.2335121694E+01
  0.8469889352E+00  0.1000000000E+01  0.3530110648E+00  0.3466000844E+01 -0.5764970736E-17 -0.1718885076E+01  0.6894836561E+15  0.3621369604E+01 -0.1484744173E-17 -0.1704039437E+01
  0.8000000000E+00  0.1000000000E+01  0.3530110648E+00  0.2942510416E+01  0.3481668092E-17 -0.1511253343E+01  0.6894836561E+15  0.3098005592E+01  0.3263544523E-17 -0.1505428333E+01
  0.1200000000E+01  0.1000000000E+01  0.4000000000E+00  0.6565708522E+01  0.2055831728E-16 -0.3297341984E+01  0.6894836561E+15  0.6755763942E+01  0.2049289322E-16 -0.3180982295E+01
  0.1153011065E+01  0.1000000000E+01  0.4000000000E+00  0.6139060859E+01  0.1118285983E-16 -0.3463123468E+01  0.6894836561E+15  0.6348338511E+01  0.1361660505E-16 -0.3361668572E+01
  0.1057046303E+01  0.1000000000E+01  0.4000000000E+00  0.5150543537E+01 -0.7737182406E-17 -0.3037832643E+01  0.6894836561E+15  0.5382636166E+01 -0.5788044549E-17 -0.2962818113E+01
  0.9429536967E+00  0.1000000000E+01  0.4000000000E+00  0.4177464069E+01 -0.1337695913E-16 -0.2798020522E+01  0.6894836561E+15  0.4385915951E+01 -0.1784369660E-16 -0.2772512699E+01
  0.8469889352E+00  0.1000000000E+01  0.4000000000E+00  0.3473232863E+01 -0.1247537275E-16 -0.2040078019E+01  0.6894836561E+15  0.3647413926E+01 -0.1072762741E-16 -0.2079595964E+01
  0.8000000000E+00  0.1000000000E+01  0.4000000000E+00  0.3137197432E+01 -0.4917672508E-17 -0.1849428503E+01  0.6894836561E+15  0.3309169207E+01 -0.4951091483E-17 -0.1916944936E+01
ZONE I=6, J=6, K=1, F=POINT
  0.1600000000E+01  0.1000000000E+01  0.0000000000E+00  0.1210864403E+00 -0.9907552247E-18 -0.6948560569E-01  0.6894836561E+15  0.1756501768E+00 -0.1066316198E-17 -0.7201641857E-01
  0.1553011065E+01  0.1000000000E+01  0.0000000000E+00  0.2256063930E-02 -0.8619184928E-18  0.4555757323E-01  0.6894836561E+15  0.5593055460E-01 -0.3505661853E-17  0.4512982573E-01
  0.1457046303E+01  0.1000000000E+01  0.0000000000E+00 -0.1112975955E-01 -0.4273081211E-19 -0.2663821704E-02  0.6894836561E+15  0.3853856635E-01 -0.1200001285E-17 -0.3059685248E-02
  0.1342953697E+01  0.1000000000E+01  0.0000000000E+00  0.5956365073E-02  0.4271081328E-18  0.3014810282E-01  0.6894836561E+15  0.5195374340E-01  0.2985952740E-17  0.2970735832E-01
  0.1246988935E+01  0.1000000000E+01  0.0000000000E+00 -0.3701900854E-02  0.2389767105E-18 -0.7684606354E-02  0.6894836561E+15  0.3981453785E-01  0.3752483804E-18 -0.7920421479E-02
  0.1200000000E+01  0.1000000000E+01  0.0000000000E+00  0.6361837958E-01  0.4432933931E-19  0.3736102996E-01  0.6894836561E+15  0.1057492405E+00  0.7988319304E-19  0.3698635334E-01
  0.1600000000E+01  0.1000000000E+01  0.4698893521E-01  0.2878134721E+01 -0.8606858238E-16  0.3031040350E+00  0.6894836561E+15  0.3015076226E+01 -0.8921840547E-16  0.3497068976E+00
  0.1553011065E+01  0.1000000000E+01  0.4698893521E-01  0.3431672811E+01 -0.4769762439E-16 -0.2122846194E+00  0.6894836561E+15  0.3558647147E+01 -0.4389846567E-16 -0.1540993794E+00
  0.1457046303E+01  0.1000000000E+01  0.4698893521E-01  0.2537051012E+01 -0.2819060827E-17 -0.6489937517E-01  0.6894836561E+15  0.2669611804E+01 -0.6713126453E-17  0.2481911043E-01
  0.1342953697E+01  0.1000000000E+01  0.4698893521E-01  0.2599881146E+01  0.2669185439E-16 -0.5695284512E-01  0.6894836561E+15  0.2736025500E+01  0.2793810982E-16  0.3085814370E-01
  0.1246988935E+01  0.1000000000E+01  0.4698893521E-01  0.2044018119E+01 -0.1104578945E-16 -0.4041882045E-01  0.6894836561E+15  0.2175592828E+01 -0.5548405926E-17  0.4912200052E-01
  0.1200000000E+01  0.1000000000E+01  0.4698893521E-01  0.2408717302E+01 -0.4344316639E-16 -0.2206266641E+00  0.6894836561E+15  0.2545482972E+01 -0.4964306872E-16 -0.1322339311E+00
  0.1600000000E+01  0.1000000000E+01  0.1429536967E+00  0.6359012476E+01 -0.2793544829E-15 -0.1700891880E+01  0.6894836561E+15  0.6486888964E+01 -0.2712816329E-15 -0.1529427643E+01
  0.1553011065E+01  0.1000000000E+01  0.1429536967E+00  0.8180084802E+01 -0.1445119173E-15 -0.8568133892E+00  0.6894836561E+15  0.8286576839E+01 -0.1493140106E-15 -0.6886621177E+00
  0.1457046303E+01  0.1000000000E+01  0.1429536967E+00  0.6273853251E+01  0.2045351883E-16 -0.8604069724E+00  0.6894836561E+15  0.6403060247E+01  0.2845763896E-16 -0.7012398271E+00
  0.1342953697E+01  0.1000000000E+01  0.1429536967E+00  0.6341170842E+01  0.9266696181E-16 -0.2043810052E+00  0.6894836561E+15  0.6483757608E+01  0.9798168287E-16 -0.5558555892E-01
  0.1246988935E+01  0.1000000000E+01  0.1429536967E+00  0.5011782116E+01  0.2862579940E-16 -0.7988817066E+00  0.6894836561E+15  0.5141399698E+01  0.1826041501E-16 -0.6519849272E+00
  0.1200000000E+01  0.1000000000E+01  0.1429536967E+00  0.5699169908E+01 -0.6183604987E-16 -0.6669909897E+00  0.6894836561E+15  0.5847701310E+01 -0.6568201310E-16 -0.5239241096E+00
  0.1600000000E+01  0.1000000000E+01  0.2570463033E+00  0.1152485991E+02  0.9285162044E-16 -0.3368085052E+01  0.6894836561E+15  0.1168106682E+02  0.9324964190E-16 -0.3196938344E+01
  0.1553011065E+01  0.1000000000E+01  0.2570463033E+00  0.1058958654E+02  0.1136998927E-15 -0.2271970035E+01  0.6894836561E+15  0.1072351143E+02  0.1163116702E-15 -0.2099455719E+01
  0.1457046303E+01  0.1000000000E+01  0.2570463033E+00  0.9411955294E+01  0.1653365894E-15 -0.2181889683E+01  0.6894836561E+15  0.9561674478E+01  0.1737691887E-15 -0.2025582209E+01
  0.1342953697E+01  0.1000000000E+01  0.2570463033E+00  0.7910029427E+01  0.1153092564E-15 -0.1175089243E+01  0.6894836561E+15  0.8059934681E+01  0.1237592400E-15 -0.1030067276E+01
  0.1246988935E+01  0.1000000000E+01  0.2570463033E+00  0.6681778779E+01  0.2920988584E-16 -0.2011658839E+01  0.6894836561E+15  0.6818490044E+01  0.3784094217E-16 -0.1873178860E+01
  0.1200000000E+01  0.1000000000E+01  0.2570463033E+00  0.6205360473E+01 -0.1240479630E-16 -0.1791241581E+01  0.6894836561E+15  0.6366926530E+01 -0.1242088779E-16 -0.1659285676E+01
  0.1600000000E+01  0.1000000000E+01  0.3530110648E+00  0.1022823247E+02  0.1940500249E-15 -0.3620197213E+01  0.6894836561E+15  0.1037082665E+02  0.1935090598E-15 -0.3470539588E+01
  0.1553011065E+01  0.1000000000E+01  0.3530110648E+00  0.1056545390E+02  0.1923044585E-15 -0.3554879518E+01  0.6894836561E+15  0.1069095099E+02  0.1931909497E-15 -0.3398348582E+01
  0.1457046303E+01  0.1000000000E+01  0.3530110648E+00  0.9546744631E+01  0.1697852328E-15 -0.3249326952E+01  0.6894836561E+15  0.9701026749E+01  0.1766802188E-15 -0.3080025851E+01
  0.1342953697E+01  0.1000000000E+01  0.3530110648E+00  0.8386724602E+01  0.1251459917E-15 -0.2645788690E+01  0.6894836561E+15  0.8549387067E+01  0.1288579466E-15 -0.2490772988E+01
  0.1246988935E+01  0.1000000000E+01  0.3530110648E+00  0.6983165428E+01  0.5110824277E-16 -0.2968891004E+01  0.6894836561E+15  0.7132054561E+01  0.4540076309E-16 -0.2833479373E+01
  0.1200000000E+01  0.1000000000E+01  0.3530110648E+00  0.6809880527E+01  0.1993429921E-16 -0.2954351519E+01  0.6894836561E+15  0.6983406680E+01  0.1990575420E-16 -0.2829949524E+01
  0.1600000000E+01  0.1000000000E+01  0.4000000000E+00  0.1049600491E+02  0.1927134091E-15 -0.4296647917E+01  0.6894836561E+15  0.1064257959E+02  0.1925682798E-15 -0.4072326619E+01
  0.1553011065E+01  0.1000000000E+01  0.4000000000E+00  0.9994640434E+01  0.2041189216E-15 -0.3548115823E+01  0.6894836561E+15  0.1011941772E+02  0.2017504396E-15 -0.3327375231E+01
  0.1457046303E+01  0.1000000000E+01  0.4000000000E+00  0.9557246134E+01  0.1648124956E-15 -0.3772362804E+01  0.6894836561E+15  0.9714051387E+01  0.1649283292E-15 -0.3572628870E+01
  0.1342953697E+01  0.1000000000E+01  0.4000000000E+00  0.8245797377E+01  0.1227477653E-15 -0.3065814325E+01  0.6894836561E+15  0.8421869893E+01  0.1340196291E-15 -0.2895734356E+01
  0.1246988935E+01  0.1000000000E+01  0.4000000000E+00  0.7208746267E+01  0.4342425252E-16 -0.3560824481E+01  0.6894836561E+15  0.7370934174E+01  0.4083725055E-16 -0.3425647118E+01
  0.1200000000E+01  0.1000000000E+01  0.4000000000E+00  0.6539547409E+01  0.2076759231E-16 -0.3284707738E+01  0.6894836561E+15  0.6731425181E+01  0.2074002668E-16 -0.3171386294E+01
ZONE I=6, J=6, K=1, F=POINT
  0.2000000000E+01  0.1000000000E+01  0.0000000000E+00  0.2397620208E+01  0.7108033181E-19  0.2123021447E+02  0.6894836561E+15  0.2432422054E+01  0.1038884569E-18  0.2215761699E+02
  0.1953011065E+01  0.1000000000E+01  0.0000000000E+00  0.1269128748E+01 -0.3697228326E-16 -0.1440178953E+00  0.6894836561E+15  0.1332774959E+01 -0.3696577360E-16 -0.1490325346E+00
  0.1857046303E+01  0.1000000000E+01  0.0000000000E+00 -0.3298203170E+00 -0.2002680534E-16  0.1542806589E+00  0.6894836561E+15 -0.2598196475E+00 -0.1655316739E-16  0.1509302652E+00
  0.1742953697E+01  0.1000000000E+01  0.0000000000E+00  0.1185728706E+00  0.1319356379E-18 -0.3708498625E-01  0.6894836561E+15  0.1808778716E+00  0.2220045326E-18 -0.3621182194E-01
  0.1646988935E+01  0.1000000000E+01  0.0000000000E+00 -0.1408670562E+00  0.2981718095E-18  0.6137301980E-01  0.6894836561E+15 -0.7449198697E-01  0.9547940220E-19  0.5954055521E-01
  0.1600000000E+01  0.1000000000E+01  0.0000000000E+00  0.7982819024E-01 -0.1065026746E-17 -0.8154839682E-01  0.6894836561E+15  0.1324979977E+00 -0.1151732057E-17 -0.8271454115E-01
  0.2000000000E+01  0.1000000000E+01  0.4698893521E-01 -0.2004478796E-01  0.7316083007E-18  0.4845933589E+02  0.6894836561E+15 -0.5408742646E-01  0.6781503020E-18  0.4869624518E+02
  0.1953011065E+01  0.1000000000E+01  0.4698893521E-01  0.1079971355E+02  0.1332141441E-15  0.1317695274E+01  0.6894836561E+15  0.1092739059E+02  0.1332833433E-15  0.1466463380E+01
  0.1857046303E+01  0.1000000000E+01  0.4698893521E-01  0.1140527622E+02  0.2717637161E-15 -0.2007556714E+01  0.6894836561E+15  0.1157018039E+02  0.2836491533E-15 -0.1889769266E+01
  0.1742953697E+01  0.1000000000E+01  0.4698893521E-01  0.5514056497E+01 -0.4478858165E-16 -0.6791772950E+00  0.6894836561E+15  0.5673376836E+01 -0.4499871003E-16 -0.5725621777E+00
  0.1646988935E+01  0.1000000000E+01  0.4698893521E-01  0.4260906444E+01 -0.1143870633E-15 -0.5771869572E+00  0.6894836561E+15  0.4442970416E+01 -0.1242557603E-15 -0.5121029057E+00
  0.1600000000E+01  0.1000000000E+01  0.4698893521E-01  0.2713745173E+01 -0.8324939092E-16  0.2886774162E+00  0.6894836561E+15  0.2859385292E+01 -0.8617405422E-16  0.3301382793E+00
  0.2000000000E+01  0.1000000000E+01  0.1429536967E+00 -0.2794329692E+00  0.2924405255E-17  0.5047934176E+02  0.6894836561E+15 -0.2573153672E+00  0.2849405898E-17  0.5049192254E+02
  0.1953011065E+01  0.1000000000E+01  0.1429536967E+00  0.2606948062E+01 -0.5259482908E-15  0.1616106224E+02  0.6894836561E+15  0.2746294634E+01 -0.5119299099E-15  0.1636978573E+02
  0.1857046303E+01  0.1000000000E+01  0.1429536967E+00  0.1240578689E+02 -0.2544201771E-15 -0.3846929254E+01  0.6894836561E+15  0.1256610435E+02 -0.2642594067E-15 -0.3671614720E+01
  0.1742953697E+01  0.1000000000E+01  0.1429536967E+00  0.9687252780E+01 -0.6439619330E-16 -0.4123721741E+01  0.6894836561E+15  0.9857535848E+01 -0.4810971215E-16 -0.3948642636E+01
  0.1646988935E+01  0.1000000000E+01  0.1429536967E+00  0.9162931319E+01 -0.1686302351E-15 -0.1992302847E+01  0.6894836561E+15  0.9383207652E+01 -0.1680904976E-15 -0.1815047285E+01
  0.1600000000E+01  0.1000000000E+01  0.1429536967E+00  0.5987201219E+01 -0.2963105842E-15 -0.1701347481E+01  0.6894836561E+15  0.6154880211E+01 -0.2884317107E-15 -0.1534148463E+01
  0.2000000000E+01  0.1000000000E+01  0.2570463033E+00  0.1915406143E-01  0.1105680099E-17  0.4985735015E+02  0.6894836561E+15  0.1882021947E-01  0.1136977374E-17  0.4993140832E+02