TITLE = "Generated from ../MESH/Convergence_0000000000.hmesh and Convergence_0000006700.hsol"
VARIABLES = "x","y","z","veloT_x","veloT_y","veloT_z","slr_4","velo_x","velo_y","velo_z"
ZONE I=6, J=6, K=1, F=POINT
  0.4000000000E+00  0.1000000000E+01  0.0000000000E+00 -0.1231068519E-01  0.2841230670E-19  0.7927024599E-02  0.6186318594E+15 -0.1407978346E-01  0.2721220936E-19  0.7690858830E-02
  0.3530110648E+00  0.1000000000E+01  0.0000000000E+00 -0.2468819563E-02  0.8529066904E-20 -0.2692135726E-03  0.6186318594E+15 -0.4221682779E-02  0.8043622620E-20 -0.3238764367E-03
  0.2570463033E+00  0.1000000000E+01  0.0000000000E+00 -0.1220736136E-02  0.1096721744E-20  0.2349145676E-02  0.6186318594E+15 -0.2802814336E-02  0.8114030919E-21  0.2437141148E-02
  0.1429536967E+00  0.1000000000E+01  0.0000000000E+00 -0.2469453324E-02  0.1459886313E-21 -0.1004094976E-02  0.6186318594E+15 -0.4246154261E-02  0.1652375605E-21 -0.1087251003E-02
  0.4698893521E-01  0.1000000000E+01  0.0000000000E+00  0.4569388387E-03 -0.2352585227E-20  0.2060958579E-02  0.6186318594E+15 -0.1070262452E-02 -0.2867824487E-20  0.2382525092E-02
  0.0000000000E+00  0.1000000000E+01  0.0000000000E+00 -0.7558327425E-02  0.1202078703E-22  0.2144324486E-02  0.6186318594E+15 -0.7875928003E-02  0.1674537193E-22  0.2412159554E-02
  0.4000000000E+00  0.1000000000E+01  0.4698893521E-01  0.2776655209E+00  0.3319938877E-17 -0.4729138628E-01  0.6186318594E+15  0.2699366436E+00  0.3364856809E-17 -0.5377524331E-01
  0.3530110648E+00  0.1000000000E+01  0.4698893521E-01  0.1327599182E+00  0.2995706398E-17 -0.9544087387E-02  0.6186318594E+15  0.1240728749E+00  0.3093339272E-17 -0.1433498519E-01
  0.2570463033E+00  0.1000000000E+01  0.4698893521E-01  0.1003583777E+00  0.1297939977E-17 -0.1829344495E-01  0.6186318594E+15  0.9230473406E-01  0.1304961100E-17 -0.2064079970E-01
  0.1429536967E+00  0.1000000000E+01  0.4698893521E-01  0.5460420037E-02  0.4112888193E-18 -0.1170596486E-01  0.6186318594E+15 -0.4426619691E-02  0.3856087073E-18 -0.9496553649E-02
  0.4698893521E-01  0.1000000000E+01  0.4698893521E-01 -0.3454016678E-03  0.1031849264E-18 -0.1045616671E-01  0.6186318594E+15 -0.8687319135E-02  0.9258784724E-19 -0.3612314671E-02
  0.0000000000E+00  0.1000000000E+01  0.4698893521E-01 -0.1808391098E-01  0.9132477216E-21  0.3720161320E-02  0.6186318594E+15 -0.1843977942E-01  0.1004338280E-20  0.5306833229E-02
  0.4000000000E+00  0.1000000000E+01  0.1429536967E+00  0.6366720227E+00  0.1070418692E-16 -0.1377916485E+00  0.6186318594E+15  0.6268220500E+00  0.1056787530E-16 -0.1419726887E+00
  0.3530110648E+00  0.1000000000E+01  0.1429536967E+00  0.3625218004E+00  0.6835826007E-17 -0.1726679876E+00  0.6186318594E+15  0.3513750160E+00  0.6870010474E-17 -0.1763091361E+00
  0.2570463033E+00  0.1000000000E+01  0.1429536967E+00  0.2471614058E+00  0.3056863785E-17 -0.1077887997E+00  0.6186318594E+15  0.2361937478E+00  0.3052874250E-17 -0.1096633761E+00
  0.1429536967E+00  0.1000000000E+01  0.1429536967E+00  0.4164823357E-01  0.1258664467E-17 -0.1140769303E+00  0.6186318594E+15  0.2632893130E-01  0.1259847127E-17 -0.1119946331E+00
  0.4698893521E-01  0.1000000000E+01  0.1429536967E+00 -0.5188430190E-02  0.3421632441E-18 -0.8582365590E-02  0.6186318594E+15 -0.1730354245E-01  0.3102623369E-18 -0.1439072309E-02
  0.0000000000E+00  0.1000000000E+01  0.1429536967E+00 -0.2138758228E-01 -0.1941263189E-21  0.7807053417E-03  0.6186318594E+15 -0.2121348862E-01  0.2900984008E-21  0.2284603249E-02
  0.4000000000E+00  0.1000000000E+01  0.2570463033E+00  0.7895745689E+00  0.5213944746E-17 -0.4395216902E+00  0.6186318594E+15  0.7775384278E+00  0.5207848787E-17 -0.4388438704E+00
  0.3530110648E+00  0.1000000000E+01  0.2570463033E+00  0.5809929770E+00  0.4090994550E-17 -0.4748667821E+00  0.6186318594E+15  0.5691706453E+00  0.4119023125E-17 -0.4727936061E+00
  0.2570463033E+00  0.1000000000E+01  0.2570463033E+00  0.3493655414E+00  0.2964238872E-17 -0.3254108643E+00  0.6186318594E+15  0.3381210303E+00  0.2963628389E-17 -0.3246108379E+00
  0.1429536967E+00  0.1000000000E+01  0.2570463033E+00  0.1055066679E+00  0.2033855392E-17 -0.2870798072E+00  0.6186318594E+15  0.8585973293E-01  0.2034528469E-17 -0.2854590894E+00
  0.4698893521E-01  0.1000000000E+01  0.2570463033E+00  0.1327552937E-01  0.1260456000E-17 -0.4784487545E-01  0.6186318594E+15 -0.3799235459E-02  0.1334583247E-17 -0.4211234796E-01
  0.0000000000E+00  0.1000000000E+01  0.2570463033E+00 -0.1427113402E-01 -0.4097698136E-20  0.1469168923E-02  0.6186318594E+15 -0.1420347147E-01 -0.4596532838E-20  0.2132111324E-02
  0.4000000000E+00  0.1000000000E+01  0.3530110648E+00  0.8906446285E+00  0.5564642521E-17 -0.7715038843E+00  0.6186318594E+15  0.8684332976E+00  0.5579230386E-17 -0.7702166643E+00
  0.3530110648E+00  0.1000000000E+01  0.3530110648E+00  0.6471095380E+00  0.4900230938E-17 -0.7638786455E+00  0.6186318594E+15  0.6337285502E+00  0.4904998861E-17 -0.7592654281E+00
  0.2570463033E+00  0.1000000000E+01  0.3530110648E+00  0.3824963626E+00  0.2696692543E-17 -0.5687349356E+00  0.6186318594E+15  0.3729907359E+00  0.2636564523E-17 -0.5644538511E+00
  0.1429536967E+00  0.1000000000E+01  0.3530110648E+00  0.1196841960E+00  0.2392443046E-17 -0.4444505896E+00  0.6186318594E+15  0.9699978388E-01  0.2348678819E-17 -0.4395017351E+00
  0.4698893521E-01  0.1000000000E+01  0.3530110648E+00  0.1723781779E-01  0.7097361398E-18 -0.1135913509E+00  0.6186318594E+15 -0.2761241062E-02  0.6445323313E-18 -0.1062725058E+00
  0.0000000000E+00  0.1000000000E+01  0.3530110648E+00 -0.1439348583E-01  0.5416150430E-20  0.2259884538E-02  0.6186318594E+15 -0.1426609638E-01  0.5937316755E-20  0.2518113840E-02
  0.4000000000E+00  0.1000000000E+01  0.4000000000E+00  0.8988561949E+00  0.7413498647E-17 -0.9474609320E+00  0.6186318594E+15  0.8718476247E+00  0.7415381889E-17 -0.9426797334E+00
  0.3530110648E+00  0.1000000000E+01  0.4000000000E+00  0.6950386181E+00  0.6368879416E-17 -0.9194367851E+00  0.6186318594E+15  0.6802041742E+00  0.6352323186E-17 -0.9135092797E+00
  0.2570463033E+00  0.1000000000E+01  0.4000000000E+00  0.3951153310E+00  0.2733119454E-17 -0.6984970702E+00  0.6186318594E+15  0.3856586299E+00  0.2788304107E-17 -0.6902609958E+00
  0.1429536967E+00  0.1000000000E+01  0.4000000000E+00  0.1336261278E+00  0.2502179844E-17 -0.5310511639E+00  0.6186318594E+15  0.1106302018E+00  0.2559568772E-17 -0.5228947831E+00
  0.4698893521E-01  0.1000000000E+01  0.4000000000E+00  0.1293155953E-01  0.6642212680E-18 -0.1459919510E+00  0.6186318594E+15 -0.7377092694E-02  0.6454169063E-18 -0.1394185776E+00
  0.0000000000E+00  0.1000000000E+01  0.4000000000E+00 -0.6708099205E-02  0.8510997656E-20  0.7424232896E-03  0.6186318594E+15 -0.6655159025E-02  0.8795517794E-20  0.7209133371E-03
ZONE I=6, J=6, K=1, F=POINT
  0.8000000000E+00  0.1000000000E+01  0.0000000000E+00  0.1980154439E-01 -0.8356784108E-19 -0.1130850671E-01  0.6186318594E+15  0.1608866084E-01 -0.8659421064E-19 -0.1189468039E-01
  0.7530110648E+00  0.1000000000E+01  0.0000000000E+00  0.4297704569E-02  0.1316491274E-18  0.6049260201E-02  0.6186318594E+15  0.5811986442E-03  0.4855346966E-19  0.5969192797E-02
  0.6570463033E+00  0.1000000000E+01  0.0000000000E+00  0.8151142911E-03  0.3993938260E-19  0.2072556110E-03  0.6186318594E+15 -0.2407216204E-02 -0.3382621415E-20  0.2644397562E-03
  0.5429536967E+00  0.1000000000E+01  0.0000000000E+00  0.1247255498E-02  0.3708840577E-19  0.6995743315E-02  0.6186318594E+15 -0.1448786969E-02 -0.3366779440E-19  0.7114261400E-02
  0.4469889352E+00  0.1000000000E+01  0.0000000000E+00 -0.1755162872E-02 -0.3372986863E-19  0.7988525049E-03  0.6186318594E+15 -0.4142409986E-02 -0.1077929173E-18  0.7608779007E-03
  0.4000000000E+00  0.1000000000E+01  0.0000000000E+00  0.1422530918E-01  0.3211439519E-19  0.7620248834E-02  0.6186318594E+15  0.1226734163E-01  0.3099593507E-19  0.7405014138E-02
  0.8000000000E+00  0.1000000000E+01  0.4698893521E-01  0.4012345521E+00 -0.2281371918E-16 -0.4579606115E-02  0.6186318594E+15  0.3944670355E+00 -0.2273335089E-16 -0.1417163949E-02
  0.7530110648E+00  0.1000000000E+01  0.4698893521E-01  0.5860230525E+00 -0.2261198043E-16 -0.6152113621E-01  0.6186318594E+15  0.5814929786E+00 -0.2235132260E-16 -0.6087240557E-01
  0.6570463033E+00  0.1000000000E+01  0.4698893521E-01  0.3478779784E+00 -0.3847485756E-17 -0.2315444203E-01  0.6186318594E+15  0.3429588387E+00 -0.3919157308E-17 -0.2990224594E-01
  0.5429536967E+00  0.1000000000E+01  0.4698893521E-01  0.3614091857E+00  0.4826251658E-17 -0.8391922770E-02  0.6186318594E+15  0.3542262662E+00  0.4698186932E-17 -0.1822667098E-01
  0.4469889352E+00  0.1000000000E+01  0.4698893521E-01  0.2210247022E+00  0.4277600855E-17 -0.2293752804E-02  0.6186318594E+15  0.2131897290E+00  0.4331882316E-17 -0.1022073218E-01
  0.4000000000E+00  0.1000000000E+01  0.4698893521E-01  0.3192426120E+00  0.3081296668E-17 -0.4805364467E-01  0.6186318594E+15  0.3111803826E+00  0.3127859227E-17 -0.5451920042E-01
  0.8000000000E+00  0.1000000000E+01  0.1429536967E+00  0.1270678129E+01 -0.5093114274E-16 -0.4068376429E+00  0.6186318594E+15  0.1267171477E+01 -0.5101442952E-16 -0.4026438704E+00
  0.7530110648E+00  0.1000000000E+01  0.1429536967E+00  0.1533332703E+01 -0.3138343892E-16 -0.2574245513E+00  0.6186318594E+15  0.1536743546E+01 -0.3141911566E-16 -0.2561006629E+00
  0.6570463033E+00  0.1000000000E+01  0.1429536967E+00  0.1040244685E+01 -0.1742851976E-17 -0.2429316528E+00  0.6186318594E+15  0.1039902231E+01 -0.1728924334E-17 -0.2458623231E+00
  0.5429536967E+00  0.1000000000E+01  0.1429536967E+00  0.9225005704E+00  0.1096575467E-16 -0.8938632639E-01  0.6186318594E+15  0.9149586694E+00  0.1074732668E-16 -0.9248182437E-01
  0.4469889352E+00  0.1000000000E+01  0.1429536967E+00  0.5840483263E+00  0.1057155565E-16 -0.1641729053E+00  0.6186318594E+15  0.5756208260E+00  0.1065076484E-16 -0.1680266093E+00
  0.4000000000E+00  0.1000000000E+01  0.1429536967E+00  0.6888869598E+00  0.1142578327E-16 -0.1372386025E+00  0.6186318594E+15  0.6780761220E+00  0.1127693564E-16 -0.1414367153E+00
  0.8000000000E+00  0.1000000000E+01  0.2570463033E+00  0.2462728385E+01 -0.9390766136E-17 -0.1032812806E+01  0.6186318594E+15  0.2464741557E+01 -0.9390646922E-17 -0.1035391836E+01
  0.7530110648E+00  0.1000000000E+01  0.2570463033E+00  0.2281125017E+01 -0.5791547553E-17 -0.7738792484E+00  0.6186318594E+15  0.2287616191E+01 -0.5863244515E-17 -0.7766793543E+00
  0.6570463033E+00  0.1000000000E+01  0.2570463033E+00  0.1719731253E+01 -0.6954205899E-18 -0.6905605758E+00  0.6186318594E+15  0.1721247597E+01 -0.7315704602E-18 -0.6951311446E+00
  0.5429536967E+00  0.1000000000E+01  0.2570463033E+00  0.1291294935E+01  0.4765741388E-17 -0.4025595411E+00  0.6186318594E+15  0.1283715900E+01  0.4639933083E-17 -0.4114058777E+00
  0.4469889352E+00  0.1000000000E+01  0.2570463033E+00  0.8979182016E+00  0.5452386631E-17 -0.4927750264E+00  0.6186318594E+15  0.8872471036E+00  0.5419337203E-17 -0.4960706269E+00
  0.4000000000E+00  0.1000000000E+01  0.2570463033E+00  0.8208730145E+00  0.5240097024E-17 -0.4388463886E+00  0.6186318594E+15  0.8081001211E+00  0.5232110859E-17 -0.4382218825E+00
  0.8000000000E+00  0.1000000000E+01  0.3530110648E+00  0.2834563265E+01  0.4783829133E-17 -0.1622508046E+01  0.6186318594E+15  0.2838893647E+01  0.4774186856E-17 -0.1626622335E+01
  0.7530110648E+00  0.1000000000E+01  0.3530110648E+00  0.2661711858E+01  0.8587385407E-17 -0.1393790102E+01  0.6186318594E+15  0.2668142617E+01  0.8929709702E-17 -0.1398297229E+01
  0.6570463033E+00  0.1000000000E+01  0.3530110648E+00  0.2011696742E+01  0.2145298601E-17 -0.1178240659E+01  0.6186318594E+15  0.2023421090E+01  0.1943335423E-17 -0.1191530854E+01
  0.5429536967E+00  0.1000000000E+01  0.3530110648E+00  0.1488231019E+01  0.3780706110E-18 -0.8171332066E+00  0.6186318594E+15  0.1479836561E+01  0.1125292390E-17 -0.8433571655E+00
  0.4469889352E+00  0.1000000000E+01  0.3530110648E+00  0.1009636089E+01  0.5327162036E-17 -0.8285507208E+00  0.6186318594E+15  0.9803667427E+00  0.5335271843E-17 -0.8379864261E+00
  0.4000000000E+00  0.1000000000E+01  0.3530110648E+00  0.9232733223E+00  0.5537659250E-17 -0.7712893828E+00  0.6186318594E+15  0.9010147038E+00  0.5556176028E-17 -0.7700139353E+00
  0.8000000000E+00  0.1000000000E+01  0.4000000000E+00  0.2990746463E+01 -0.2031695713E-17 -0.1975797729E+01  0.6186318594E+15  0.2997663133E+01 -0.2029331529E-17 -0.1974530520E+01
  0.7530110648E+00  0.1000000000E+01  0.4000000000E+00  0.2685774825E+01  0.9500836508E-18 -0.1684774606E+01  0.6186318594E+15  0.2693445112E+01  0.9869961151E-18 -0.1685495990E+01
  0.6570463033E+00  0.1000000000E+01  0.4000000000E+00  0.2064912085E+01  0.2089629909E-17 -0.1461655804E+01  0.6186318594E+15  0.2084641572E+01  0.2122105908E-17 -0.1472422957E+01
  0.5429536967E+00  0.1000000000E+01  0.4000000000E+00  0.1508311774E+01  0.8282818278E-17 -0.1104548512E+01  0.6186318594E+15  0.1498655939E+01  0.7828212020E-17 -0.1127309766E+01
  0.4469889352E+00  0.1000000000E+01  0.4000000000E+00  0.1098863789E+01  0.9017650090E-17 -0.1042859054E+01  0.6186318594E+15  0.1056357873E+01  0.8141819168E-17 -0.1047541738E+01
  0.4000000000E+00  0.1000000000E+01  0.4000000000E+00  0.9091777650E+00  0.7430019672E-17 -0.9466814618E+00  0.6186318594E+15  0.8822640721E+00  0.7434016438E-17 -0.9419972089E+00
ZONE I=6, J=6, K=1, F=POINT
  0.1200000000E+01  0.1000000000E+01  0.0000000000E+00 -0.2678107424E-01  0.5924042386E-19  0.3624572469E-01  0.6186318594E+15 -0.3155053165E-01  0.6066434560E-19  0.3616848543E-01
  0.1153011065E+01  0.1000000000E+01  0.0000000000E+00 -0.3983360337E-03  0.5119767885E-20 -0.9789655656E-02  0.6186318594E+15 -0.5296282655E-02 -0.2203309687E-18 -0.9794125786E-02
  0.1057046303E+01  0.1000000000E+01  0.0000000000E+00  0.6313680174E-02  0.1270254942E-18  0.5807742576E-02  0.6186318594E+15  0.1675744526E-02  0.5666701839E-20  0.5831625664E-02
  0.9429536967E+00  0.1000000000E+01  0.0000000000E+00  0.9687995440E-03  0.7997251832E-20 -0.8389527247E-02  0.6186318594E+15 -0.3382867458E-02  0.5890169916E-20 -0.8430931691E-02
  0.8469889352E+00  0.1000000000E+01  0.0000000000E+00  0.5583176096E-02 -0.2147606851E-19  0.5390921141E-02  0.6186318594E+15  0.1534913856E-02 -0.2281136952E-19  0.5306763349E-02
  0.8000000000E+00  0.1000000000E+01  0.0000000000E+00 -0.2518925228E-01 -0.9285866624E-19 -0.1078686075E-01  0.6186318594E+15 -0.2896667648E-01 -0.9632160032E-19 -0.1135321324E-01
  0.1200000000E+01  0.1000000000E+01  0.4698893521E-01  0.2339247817E+01 -0.4269245057E-16 -0.2024221106E+00  0.6186318594E+15  0.2335246476E+01 -0.4247364183E-16 -0.2106734850E+00
  0.1153011065E+01  0.1000000000E+01  0.4698893521E-01  0.1641923500E+01 -0.2621598739E-16 -0.5977186423E-01  0.6186318594E+15  0.1636242236E+01 -0.2602231432E-16 -0.6652098511E-01
  0.1057046303E+01  0.1000000000E+01  0.4698893521E-01  0.1489780962E+01 -0.1124145374E-16 -0.9843274972E-01  0.6186318594E+15  0.1483736196E+01 -0.1132265576E-16 -0.1033692327E+00
  0.9429536967E+00  0.1000000000E+01  0.4698893521E-01  0.8597801008E+00 -0.1413454817E-16 -0.9146024789E-01  0.6186318594E+15  0.8521899081E+00 -0.1392017069E-16 -0.9310747079E-01
  0.8469889352E+00  0.1000000000E+01  0.4698893521E-01  0.7400799203E+00 -0.2723814896E-16 -0.9127897360E-01  0.6186318594E+15  0.7319018057E+00 -0.2687456615E-16 -0.8892557096E-01
  0.8000000000E+00  0.1000000000E+01  0.4698893521E-01  0.3402414710E+00 -0.2211747244E-16 -0.2513255529E-02  0.6186318594E+15  0.3343124677E+00 -0.2205137320E-16  0.5861241003E-03
  0.1200000000E+01  0.1000000000E+01  0.1429536967E+00  0.5476994005E+01 -0.5872478581E-16 -0.6395700446E+00  0.6186318594E+15  0.5473432148E+01 -0.5850005627E-16 -0.6400727353E+00
  0.1153011065E+01  0.1000000000E+01  0.1429536967E+00  0.4007701624E+01 -0.6506037431E-16 -0.8569269127E+00  0.6186318594E+15  0.3999652823E+01 -0.6558717374E-16 -0.8557686642E+00
  0.1057046303E+01  0.1000000000E+01  0.1429536967E+00  0.3582035440E+01 -0.3603676416E-16 -0.6569203165E+00  0.6186318594E+15  0.3574537915E+01 -0.3602276348E-16 -0.6536309803E+00
  0.9429536967E+00  0.1000000000E+01  0.1429536967E+00  0.2267213009E+01 -0.3150003687E-16 -0.7738157699E+00  0.6186318594E+15  0.2256690594E+01 -0.3148941060E-16 -0.7697126386E+00
  0.8469889352E+00  0.1000000000E+01  0.1429536967E+00  0.1932650229E+01 -0.4774827407E-16 -0.4270108850E+00  0.6186318594E+15  0.1921911705E+01 -0.4752710365E-16 -0.4219394192E+00
  0.8000000000E+00  0.1000000000E+01  0.1429536967E+00  0.1187256200E+01 -0.5312724851E-16 -0.4084883811E+00  0.6186318594E+15  0.1185132028E+01 -0.5324014486E-16 -0.4042552314E+00
  0.1200000000E+01  0.1000000000E+01  0.2570463033E+00  0.6017548472E+01 -0.6964068359E-17 -0.1782263144E+01  0.6186318594E+15  0.6006619365E+01 -0.6912900401E-17 -0.1771624568E+01
  0.1153011065E+01  0.1000000000E+01  0.2570463033E+00  0.5466754588E+01 -0.4129924994E-16 -0.2052387094E+01  0.6186318594E+15  0.5455131765E+01 -0.3980853296E-16 -0.2041503788E+01
  0.1057046303E+01  0.1000000000E+01  0.2570463033E+00  0.4569648556E+01 -0.2861328512E-16 -0.1694575194E+01  0.6186318594E+15  0.4561646054E+01 -0.2864802452E-16 -0.1681808341E+01
  0.9429536967E+00  0.1000000000E+01  0.2570463033E+00  0.3507180111E+01 -0.2789546733E-16 -0.1755974233E+01  0.6186318594E+15  0.3500171505E+01 -0.2749926608E-16 -0.1745383097E+01
  0.8469889352E+00  0.1000000000E+01  0.2570463033E+00  0.2873580935E+01 -0.1032444864E-16 -0.1112750662E+01  0.6186318594E+15  0.2869182392E+01 -0.1047511036E-16 -0.1111743325E+01
  0.8000000000E+00  0.1000000000E+01  0.2570463033E+00  0.2425121936E+01 -0.9569314691E-17 -0.1035490502E+01  0.6186318594E+15  0.2427908679E+01 -0.9554802052E-17 -0.1037626717E+01
  0.1200000000E+01  0.1000000000E+01  0.3530110648E+00  0.6518667764E+01  0.2947595854E-16 -0.2955818126E+01  0.6186318594E+15  0.6507015935E+01  0.2948637613E-16 -0.2952158280E+01
  0.1153011065E+01  0.1000000000E+01  0.3530110648E+00  0.5775939754E+01  0.1111634938E-16 -0.2919831016E+01  0.6186318594E+15  0.5763219831E+01  0.1129836936E-16 -0.2915574931E+01
  0.1057046303E+01  0.1000000000E+01  0.3530110648E+00  0.4974654733E+01 -0.6937516675E-17 -0.2607581743E+01  0.6186318594E+15  0.4963856170E+01 -0.7030377860E-17 -0.2600142956E+01
  0.9429536967E+00  0.1000000000E+01  0.3530110648E+00  0.3899337577E+01 -0.1290139116E-16 -0.2431662961E+01  0.6186318594E+15  0.3898851201E+01 -0.1294341877E-16 -0.2422974012E+01
  0.8469889352E+00  0.1000000000E+01  0.3530110648E+00  0.3313141500E+01  0.1631380000E-17 -0.1815065013E+01  0.6186318594E+15  0.3320466855E+01  0.1824267975E-17 -0.1815619518E+01
  0.8000000000E+00  0.1000000000E+01  0.3530110648E+00  0.2787111752E+01  0.4827672790E-17 -0.1622830329E+01  0.6186318594E+15  0.2792515176E+01  0.4829003703E-17 -0.1626965708E+01
  0.1200000000E+01  0.1000000000E+01  0.4000000000E+00  0.6326528914E+01  0.3295190171E-16 -0.3289402844E+01  0.6186318594E+15  0.6313375784E+01  0.3294609647E-16 -0.3291594885E+01
  0.1153011065E+01  0.1000000000E+01  0.4000000000E+00  0.5944685190E+01  0.2657728990E-16 -0.3446942145E+01  0.6186318594E+15  0.5930580195E+01  0.2656949893E-16 -0.3449605638E+01
  0.1057046303E+01  0.1000000000E+01  0.4000000000E+00  0.4999397538E+01  0.3011440217E-17 -0.3019187209E+01  0.6186318594E+15  0.4986585307E+01  0.3076588698E-17 -0.3017640470E+01
  0.9429536967E+00  0.1000000000E+01  0.4000000000E+00  0.4033075053E+01 -0.1301414551E-16 -0.2822490927E+01  0.6186318594E+15  0.4033289525E+01 -0.1290144573E-16 -0.2816592319E+01
  0.8469889352E+00  0.1000000000E+01  0.4000000000E+00  0.3323354262E+01 -0.6889333160E-17 -0.2133795735E+01  0.6186318594E+15  0.3334889964E+01 -0.6832488538E-17 -0.2129019988E+01
  0.8000000000E+00  0.1000000000E+01  0.4000000000E+00  0.2987181909E+01 -0.2014633903E-17 -0.1979285654E+01  0.6186318594E+15  0.2994091405E+01 -0.2011603908E-17 -0.1977517133E+01
ZONE I=6, J=6, K=1, F=POINT
  0.1600000000E+01  0.1000000000E+01  0.0000000000E+00  0.1365872966E+00 -0.9366078336E-18 -0.7251124023E-01  0.6186318594E+15  0.1321027219E+00 -0.1045240904E-17 -0.7226201890E-01
  0.1553011065E+01  0.1000000000E+01  0.0000000000E+00  0.1669397884E-01 -0.1625725033E-17  0.4494880374E-01  0.6186318594E+15  0.1240217984E-01 -0.1445428061E-17  0.4478565031E-01
  0.1457046303E+01  0.1000000000E+01  0.0000000000E+00 -0.1333926523E-02 -0.2321513621E-18 -0.3233007622E-02  0.6186318594E+15 -0.6007310572E-02 -0.1407014108E-18 -0.3273609269E-02
  0.1342953697E+01  0.1000000000E+01  0.0000000000E+00  0.1063990339E-01  0.7005825030E-18  0.2963400020E-01  0.6186318594E+15  0.5969716026E-02  0.4436926769E-18  0.2949245904E-01
  0.1246988935E+01  0.1000000000E+01  0.0000000000E+00 -0.2749412178E-02  0.1401993538E-18 -0.8444892276E-02  0.6186318594E+15 -0.7282952738E-02  0.1164954189E-18 -0.8464068911E-02
  0.1200000000E+01  0.1000000000E+01  0.0000000000E+00  0.6231773551E-01  0.6490840681E-19  0.3627388548E-01  0.6186318594E+15  0.5786499728E-01  0.6563039064E-19  0.3618156421E-01
  0.1600000000E+01  0.1000000000E+01  0.4698893521E-01  0.3007016081E+01 -0.8784585386E-16  0.2665951617E+00  0.6186318594E+15  0.3004964685E+01 -0.8780727055E-16  0.2337174174E+00
  0.1553011065E+01  0.1000000000E+01  0.4698893521E-01  0.3533470654E+01 -0.4322325651E-16 -0.2386202743E+00  0.6186318594E+15  0.3531533685E+01 -0.4325472555E-16 -0.2692300554E+00
  0.1457046303E+01  0.1000000000E+01  0.4698893521E-01  0.2610976928E+01 -0.4903963415E-17 -0.5810472409E-01  0.6186318594E+15  0.2608200579E+01 -0.4844507204E-17 -0.7961223906E-01
  0.1342953697E+01  0.1000000000E+01  0.4698893521E-01  0.2645825148E+01  0.2847773574E-16 -0.4449977744E-01  0.6186318594E+15  0.2642424935E+01  0.2843862160E-16 -0.5903026438E-01
  0.1246988935E+01  0.1000000000E+01  0.4698893521E-01  0.2072620132E+01 -0.6620350074E-17 -0.2482061771E-01  0.6186318594E+15  0.2068521025E+01 -0.6787977330E-17 -0.3523644499E-01
  0.1200000000E+01  0.1000000000E+01  0.4698893521E-01  0.2438061586E+01 -0.4692423888E-16 -0.2081248186E+00  0.6186318594E+15  0.2431998448E+01 -0.4667866093E-16 -0.2159756035E+00
  0.1600000000E+01  0.1000000000E+01  0.1429536967E+00  0.6472801153E+01 -0.2667441029E-15 -0.1656811343E+01  0.6186318594E+15  0.6453714349E+01 -0.2669222479E-15 -0.1688526165E+01
  0.1553011065E+01  0.1000000000E+01  0.1429536967E+00  0.8219155334E+01 -0.1436216873E-15 -0.8258515891E+00  0.6186318594E+15  0.8208502081E+01 -0.1432336248E-15 -0.8549630452E+00
  0.1457046303E+01  0.1000000000E+01  0.1429536967E+00  0.6263722637E+01  0.3103952659E-16 -0.8371414719E+00  0.6186318594E+15  0.6250852889E+01  0.3003441272E-16 -0.8561288910E+00
  0.1342953697E+01  0.1000000000E+01  0.1429536967E+00  0.6290933761E+01  0.9991804533E-16 -0.1731169671E+00  0.6186318594E+15  0.6281310072E+01  0.9957680084E-16 -0.1805211475E+00
  0.1246988935E+01  0.1000000000E+01  0.1429536967E+00  0.4931603452E+01  0.2408387931E-16 -0.7594273636E+00  0.6186318594E+15  0.4923780706E+01  0.2486095046E-16 -0.7611485601E+00
  0.1200000000E+01  0.1000000000E+01  0.1429536967E+00  0.5644457889E+01 -0.6287048022E-16 -0.6339291778E+00  0.6186318594E+15  0.5629299198E+01 -0.6252133917E-16 -0.6352543465E+00
  0.1600000000E+01  0.1000000000E+01  0.2570463033E+00  0.1158994341E+02  0.1026500604E-15 -0.3359597961E+01  0.6186318594E+15  0.1159116295E+02  0.1025710467E-15 -0.3379703774E+01
  0.1553011065E+01  0.1000000000E+01  0.2570463033E+00  0.1057901939E+02  0.1250968111E-15 -0.2284913912E+01  0.6186318594E+15  0.1056186924E+02  0.1247813204E-15 -0.2295891105E+01
  0.1457046303E+01  0.1000000000E+01  0.2570463033E+00  0.9320731335E+01  0.1824307884E-15 -0.2217123017E+01  0.6186318594E+15  0.9296565558E+01  0.1809503981E-15 -0.2219245453E+01
  0.1342953697E+01  0.1000000000E+01  0.2570463033E+00  0.7748460026E+01  0.1301273703E-15 -0.1180119136E+01  0.6186318594E+15  0.7732740376E+01  0.1292200716E-15 -0.1175521218E+01
  0.1246988935E+01  0.1000000000E+01  0.2570463033E+00  0.6497944514E+01  0.4212571908E-16 -0.1991839039E+01  0.6186318594E+15  0.6486782986E+01  0.4167308104E-16 -0.1982096411E+01
  0.1200000000E+01  0.1000000000E+01  0.2570463033E+00  0.6057469784E+01 -0.7264573105E-17 -0.1772376907E+01  0.6186318594E+15  0.6046662877E+01 -0.7210253783E-17 -0.1764689513E+01
  0.1600000000E+01  0.1000000000E+01  0.3530110648E+00  0.1023268086E+02  0.2061878649E-15 -0.3737759951E+01  0.6186318594E+15  0.1021775804E+02  0.2061498840E-15 -0.3739763839E+01
  0.1553011065E+01  0.1000000000E+01  0.3530110648E+00  0.1048755687E+02  0.2075708983E-15 -0.3681037282E+01  0.6186318594E+15  0.1045985692E+02  0.2073592495E-15 -0.3680770750E+01
  0.1457046303E+01  0.1000000000E+01  0.3530110648E+00  0.9375343764E+01  0.1928178352E-15 -0.3350754944E+01  0.6186318594E+15  0.9347734088E+01  0.1910163924E-15 -0.3348021683E+01
  0.1342953697E+01  0.1000000000E+01  0.3530110648E+00  0.8139683776E+01  0.1428548756E-15 -0.2693081277E+01  0.6186318594E+15  0.8122040985E+01  0.1423143213E-15 -0.2692841029E+01
  0.1246988935E+01  0.1000000000E+01  0.3530110648E+00  0.6722194419E+01  0.5777055967E-16 -0.2977819622E+01  0.6186318594E+15  0.6707304401E+01  0.5832796910E-16 -0.2975364915E+01
  0.1200000000E+01  0.1000000000E+01  0.3530110648E+00  0.6596844235E+01  0.2960374422E-16 -0.2956056661E+01  0.6186318594E+15  0.6582294620E+01  0.2957746716E-16 -0.2952179381E+01
  0.1600000000E+01  0.1000000000E+01  0.4000000000E+00  0.1047463391E+02  0.2072378364E-15 -0.4392580503E+01  0.6186318594E+15  0.1046471402E+02  0.2071255167E-15 -0.4372304736E+01
  0.1553011065E+01  0.1000000000E+01  0.4000000000E+00  0.9878662838E+01  0.2172531331E-15 -0.3655936388E+01  0.6186318594E+15  0.9853381704E+01  0.2176275120E-15 -0.3637874432E+01
  0.1457046303E+01  0.1000000000E+01  0.4000000000E+00  0.9346681658E+01  0.1826523103E-15 -0.3862885371E+01  0.6186318594E+15  0.9320479361E+01  0.1828422928E-15 -0.3853655385E+01
  0.1342953697E+01  0.1000000000E+01  0.4000000000E+00  0.7967527178E+01  0.1490121154E-15 -0.3102659652E+01  0.6186318594E+15  0.7952769128E+01  0.1479934236E-15 -0.3103051079E+01
  0.1246988935E+01  0.1000000000E+01  0.4000000000E+00  0.6918592265E+01  0.5632844831E-16 -0.3562883096E+01  0.6186318594E+15  0.6901619543E+01  0.5679901649E-16 -0.3565604241E+01
  0.1200000000E+01  0.1000000000E+01  0.4000000000E+00  0.6300530359E+01  0.3323519657E-16 -0.3276941275E+01  0.6186318594E+15  0.6289196837E+01  0.3320312399E-16 -0.3282091191E+01
ZONE I=6, J=6, K=1, F=POINT
  0.2000000000E+01  0.1000000000E+01  0.0000000000E+00  0.2402591287E+01  0.7502996631E-19  0.2123435817E+02  0.6186318594E+15  0.2430396906E+01  0.9547015408E-19  0.2215555924E+02
  0.1953011065E+01  0.1000000000E+01  0.0000000000E+00  0.1299195452E+01 -0.3747711460E-16 -0.1368916574E+00  0.6186318594E+15  0.1300197033E+01 -0.3615449991E-16 -0.1500370923E+00
  0.1857046303E+01  0.1000000000E+01  0.0000000000E+00 -0.2981594099E+00 -0.1831331027E-16  0.1517845063E+00  0.6186318594E+15 -0.3028261422E+00 -0.1904836782E-16  0.1501265016E+00
  0.1742953697E+01  0.1000000000E+01  0.0000000000E+00  0.1413757962E+00  0.2356441250E-18 -0.3707604397E-01  0.6186318594E+15  0.1379037767E+00  0.1106413893E-18 -0.3685145030E-01
  0.1646988935E+01  0.1000000000E+01  0.0000000000E+00 -0.1192498217E+00  0.2844565963E-18  0.6032049853E-01  0.6186318594E+15 -0.1239882050E+00  0.2744450388E-18  0.5946492031E-01
  0.1600000000E+01  0.1000000000E+01  0.0000000000E+00  0.9483504891E-01 -0.1017739302E-17 -0.8454674207E-01  0.6186318594E+15  0.8991013732E-01 -0.1127502100E-17 -0.8293285688E-01
  0.2000000000E+01  0.1000000000E+01  0.4698893521E-01 -0.1205307845E-01  0.7514712220E-18  0.4849017591E+02  0.6186318594E+15 -0.5491965210E-01  0.6921753978E-18  0.4866208375E+02
  0.1953011065E+01  0.1000000000E+01  0.4698893521E-01  0.1096410643E+02  0.1353271889E-15  0.1470467730E+01  0.6186318594E+15  0.1095984183E+02  0.1342085993E-15  0.1493460068E+01
  0.1857046303E+01  0.1000000000E+01  0.4698893521E-01  0.1160556087E+02  0.2866602554E-15 -0.1885769591E+01  0.6186318594E+15  0.1161582608E+02  0.2875149990E-15 -0.1883846856E+01
  0.1742953697E+01  0.1000000000E+01  0.4698893521E-01  0.5702512767E+01 -0.4326057291E-16 -0.6168075520E+00  0.6186318594E+15  0.5713007988E+01 -0.4294702158E-16 -0.6343100335E+00
  0.1646988935E+01  0.1000000000E+01  0.4698893521E-01  0.4452486066E+01 -0.1225491610E-15 -0.5909061394E+00  0.6186318594E+15  0.4456136684E+01 -0.1229084903E-15 -0.6202275770E+00
  0.1600000000E+01  0.1000000000E+01  0.4698893521E-01  0.2842295882E+01 -0.8498605968E-16  0.2524000243E+00  0.6186318594E+15  0.2849661028E+01 -0.8476706940E-16  0.2142647595E+00
  0.2000000000E+01  0.1000000000E+01  0.1429536967E+00 -0.2819296212E+00  0.2727411315E-17  0.5051275354E+02  0.6186318594E+15 -0.2578540974E+00  0.2730725324E-17  0.5044479608E+02
  0.1953011065E+01  0.1000000000E+01  0.1429536967E+00  0.2784851995E+01 -0.5100749153E-15  0.1635778611E+02  0.6186318594E+15  0.2778180422E+01 -0.5093418977E-15  0.1640118628E+02
  0.1857046303E+01  0.1000000000E+01  0.1429536967E+00  0.1264738375E+02 -0.2637780122E-15 -0.3651252327E+01  0.6186318594E+15  0.1266468489E+02 -0.2650241400E-15 -0.3639240806E+01
  0.1742953697E+01  0.1000000000E+01  0.1429536967E+00  0.9934632572E+01 -0.3567523412E-16 -0.3988263589E+01  0.6186318594E+15  0.9963821521E+01 -0.3334141650E-16 -0.4005585326E+01
  0.1646988935E+01  0.1000000000E+01  0.1429536967E+00  0.9397993130E+01 -0.1626334263E-15 -0.1921705031E+01  0.6186318594E+15  0.9412388431E+01 -0.1621566001E-15 -0.1950647879E+01
  0.1600000000E+01  0.1000000000E+01  0.1429536967E+00  0.6098631609E+01 -0.2834646310E-15 -0.1657280379E+01  0.6186318594E+15  0.6120480982E+01 -0.2839526660E-15 -0.1693236192E+01
  0.2000000000E+01  0.1000000000E+01  0.2570463033E+00  0.1902793875E-01  0.1143074959E-17  0.4988187204E+02  0.6186318594E+15  0.1801783913E-01  0.1105499090E-17  0.4988148638E+02