TITLE = "Generated from ../MESH/Convergence_0000000000.hmesh and Convergence_0000005600.hsol"
VARIABLES = "x","y","z","veloT_x","veloT_y","veloT_z","slr_4","velo_x","velo_y","velo_z"
ZONE I=6, J=6, K=1, F=POINT
  0.4000000000E+00  0.1000000000E+01  0.0000000000E+00 -0.1136558738E-01  0.2817467867E-19  0.7646482600E-02  0.6641495322E+15 -0.1219290094E-01  0.2792597275E-19  0.7744452758E-02
  0.3530110648E+00  0.1000000000E+01  0.0000000000E+00 -0.1000734614E-02  0.9128817030E-20 -0.2779472967E-03  0.6641495322E+15 -0.2103406102E-02  0.9395402728E-20 -0.2947882850E-03
  0.2570463033E+00  0.1000000000E+01  0.0000000000E+00  0.3009268525E-03  0.1448672749E-20  0.2413941654E-02  0.6641495322E+15 -0.6030741848E-03  0.1686498336E-20  0.2488691307E-02
  0.1429536967E+00  0.1000000000E+01  0.0000000000E+00 -0.7557174148E-03  0.3102222358E-21 -0.1079609082E-02  0.6641495322E+15 -0.1285521577E-02  0.3817573914E-21 -0.1059100353E-02
  0.4698893521E-01  0.1000000000E+01  0.0000000000E+00  0.1774937923E-02 -0.2340969810E-20  0.1993102063E-02  0.6641495322E+15  0.1512839076E-02 -0.2428046625E-20  0.2094446280E-02
  0.0000000000E+00  0.1000000000E+01  0.0000000000E+00 -0.7528187114E-02  0.1374987519E-22  0.2085225967E-02  0.6641495322E+15 -0.7525962072E-02  0.1462397361E-22  0.2141651255E-02
  0.4000000000E+00  0.1000000000E+01  0.4698893521E-01  0.2713464889E+00  0.3171037433E-17 -0.3534484054E-01  0.6641495322E+15  0.2690556208E+00  0.3184420913E-17 -0.5339240083E-01
  0.3530110648E+00  0.1000000000E+01  0.4698893521E-01  0.1319588796E+00  0.2825666320E-17  0.2718712659E-03  0.6641495322E+15  0.1264087519E+00  0.2903012177E-17 -0.1489889080E-01
  0.2570463033E+00  0.1000000000E+01  0.4698893521E-01  0.1014961874E+00  0.1204731394E-17 -0.1457568922E-01  0.6641495322E+15  0.9674531698E-01  0.1201378165E-17 -0.2113216638E-01
  0.1429536967E+00  0.1000000000E+01  0.4698893521E-01  0.4867626536E-02  0.3596605574E-18 -0.9609671234E-02  0.6641495322E+15  0.2722062858E-02  0.3531967989E-18 -0.1062613145E-01
  0.4698893521E-01  0.1000000000E+01  0.4698893521E-01 -0.1231460782E-02  0.8523509300E-19 -0.8740170040E-02  0.6641495322E+15 -0.2634715014E-02  0.8406673111E-19 -0.8283908376E-02
  0.0000000000E+00  0.1000000000E+01  0.4698893521E-01 -0.1814434079E-01  0.8437874238E-21  0.2322792474E-02  0.6641495322E+15 -0.1812367984E-01  0.9617764022E-21  0.2545558675E-02
  0.4000000000E+00  0.1000000000E+01  0.1429536967E+00  0.6155325965E+00  0.1025916654E-16 -0.1300440647E+00  0.6641495322E+15  0.6111197946E+00  0.1019783153E-16 -0.1424279708E+00
  0.3530110648E+00  0.1000000000E+01  0.1429536967E+00  0.3526866464E+00  0.6478764159E-17 -0.1656455895E+00  0.6641495322E+15  0.3401722442E+00  0.6563766298E-17 -0.1768287858E+00
  0.2570463033E+00  0.1000000000E+01  0.1429536967E+00  0.2451579650E+00  0.2801112108E-17 -0.1016667489E+00  0.6641495322E+15  0.2332603243E+00  0.2793680343E-17 -0.1086434563E+00
  0.1429536967E+00  0.1000000000E+01  0.1429536967E+00  0.4072249818E-01  0.1119826121E-17 -0.1119782753E+00  0.6641495322E+15  0.3513250334E-01  0.1118963507E-17 -0.1135487625E+00
  0.4698893521E-01  0.1000000000E+01  0.1429536967E+00 -0.4775115240E-02  0.2944504716E-18 -0.8717449802E-02  0.6641495322E+15 -0.7441154528E-02  0.2899473921E-18 -0.7665075609E-02
  0.0000000000E+00  0.1000000000E+01  0.1429536967E+00 -0.2140415459E-01 -0.9391220610E-22 -0.1097114453E-02  0.6641495322E+15 -0.2134335577E-01  0.2448198916E-21 -0.7716790723E-03
  0.4000000000E+00  0.1000000000E+01  0.2570463033E+00  0.7412834730E+00  0.4624566093E-17 -0.4272612280E+00  0.6641495322E+15  0.7374903868E+00  0.4619328418E-17 -0.4234467809E+00
  0.3530110648E+00  0.1000000000E+01  0.2570463033E+00  0.5465454302E+00  0.3364742406E-17 -0.4646261683E+00  0.6641495322E+15  0.5358060448E+00  0.3392803979E-17 -0.4627198980E+00
  0.2570463033E+00  0.1000000000E+01  0.2570463033E+00  0.3338918075E+00  0.2638643248E-17 -0.3222727455E+00  0.6641495322E+15  0.3201027316E+00  0.2638791138E-17 -0.3227729124E+00
  0.1429536967E+00  0.1000000000E+01  0.2570463033E+00  0.1003671723E+00  0.1864208459E-17 -0.2896582557E+00  0.6641495322E+15  0.9142709599E-01  0.1864738670E-17 -0.2885990108E+00
  0.4698893521E-01  0.1000000000E+01  0.2570463033E+00  0.1117447208E-01  0.1162947819E-17 -0.5026649019E-01  0.6641495322E+15  0.8059575509E-02  0.1181036467E-17 -0.4888095600E-01
  0.0000000000E+00  0.1000000000E+01  0.2570463033E+00 -0.1416667394E-01 -0.4330809586E-20 -0.9596172397E-03  0.6641495322E+15 -0.1410677427E-01 -0.4498278122E-20 -0.7181413724E-03
  0.4000000000E+00  0.1000000000E+01  0.3530110648E+00  0.8101928357E+00  0.5165420263E-17 -0.7401342127E+00  0.6641495322E+15  0.8092118992E+00  0.5171127954E-17 -0.7393962734E+00
  0.3530110648E+00  0.1000000000E+01  0.3530110648E+00  0.5952176348E+00  0.4553211737E-17 -0.7377172262E+00  0.6641495322E+15  0.5878783756E+00  0.4555552819E-17 -0.7384541378E+00
  0.2570463033E+00  0.1000000000E+01  0.3530110648E+00  0.3556237744E+00  0.2808583575E-17 -0.5590842106E+00  0.6641495322E+15  0.3413303135E+00  0.2822515968E-17 -0.5601431955E+00
  0.1429536967E+00  0.1000000000E+01  0.3530110648E+00  0.1027477028E+00  0.2392595895E-17 -0.4419299687E+00  0.6641495322E+15  0.9271649234E-01  0.2380655246E-17 -0.4406321598E+00
  0.4698893521E-01  0.1000000000E+01  0.3530110648E+00  0.1115599189E-01  0.7145151648E-18 -0.1144413352E+00  0.6641495322E+15  0.9171158035E-02  0.6989264814E-18 -0.1126981128E+00
  0.0000000000E+00  0.1000000000E+01  0.3530110648E+00 -0.1431966146E-01  0.5001439906E-20 -0.9123268653E-03  0.6641495322E+15 -0.1433459583E-01  0.4809342421E-20 -0.7141901188E-03
  0.4000000000E+00  0.1000000000E+01  0.4000000000E+00  0.8029980667E+00  0.7220212670E-17 -0.9096622551E+00  0.6641495322E+15  0.8040277243E+00  0.7216246857E-17 -0.9104138873E+00
  0.3530110648E+00  0.1000000000E+01  0.4000000000E+00  0.6337070532E+00  0.6289360071E-17 -0.8886931818E+00  0.6641495322E+15  0.6276443013E+00  0.6309711809E-17 -0.8914992971E+00
  0.2570463033E+00  0.1000000000E+01  0.4000000000E+00  0.3598355586E+00  0.2644697752E-17 -0.6746043514E+00  0.6641495322E+15  0.3450180331E+00  0.2603732134E-17 -0.6794020306E+00
  0.1429536967E+00  0.1000000000E+01  0.4000000000E+00  0.1111362560E+00  0.2442432111E-17 -0.5164603489E+00  0.6641495322E+15  0.9967600052E-01  0.2430334770E-17 -0.5182724911E+00
  0.4698893521E-01  0.1000000000E+01  0.4000000000E+00  0.6499262846E-02  0.6826260273E-18 -0.1442775124E+00  0.6641495322E+15  0.4106703403E-02  0.6749933541E-18 -0.1420437206E+00
  0.0000000000E+00  0.1000000000E+01  0.4000000000E+00 -0.6674862869E-02  0.8464698913E-20 -0.1769242099E-02  0.6641495322E+15 -0.6620980432E-02  0.8680484936E-20 -0.1431116411E-02
ZONE I=6, J=6, K=1, F=POINT
  0.8000000000E+00  0.1000000000E+01  0.0000000000E+00  0.1854386547E-01 -0.8462190087E-19 -0.1177827632E-01  0.6641495322E+15  0.1718348875E-01 -0.8713160632E-19 -0.1180470024E-01
  0.7530110648E+00  0.1000000000E+01  0.0000000000E+00  0.2721604794E-02  0.9713224463E-19  0.5872913729E-02  0.6641495322E+15  0.1433139595E-02  0.6760680954E-19  0.5862356581E-02
  0.6570463033E+00  0.1000000000E+01  0.0000000000E+00  0.1585437563E-03  0.3018572279E-19  0.9492269883E-04  0.6641495322E+15 -0.1042038164E-02  0.1499184876E-19  0.1838649767E-03
  0.5429536967E+00  0.1000000000E+01  0.0000000000E+00  0.1390822648E-02  0.4234721160E-19  0.6778221527E-02  0.6641495322E+15  0.7069787114E-03  0.2381963184E-19  0.6914620002E-02
  0.4469889352E+00  0.1000000000E+01  0.0000000000E+00 -0.1345680172E-02 -0.1933783097E-19  0.4481277909E-03  0.6641495322E+15 -0.1672925088E-02 -0.2918999997E-19  0.5137520734E-03
  0.4000000000E+00  0.1000000000E+01  0.0000000000E+00  0.1545953907E-01  0.3183902604E-19  0.7316887985E-02  0.6641495322E+15  0.1478123032E-01  0.3161323381E-19  0.7442457546E-02
  0.8000000000E+00  0.1000000000E+01  0.4698893521E-01  0.3613446381E+00 -0.2316734629E-16  0.1549631899E-01  0.6641495322E+15  0.3585964237E+00 -0.2313170720E-16  0.6105268140E-02
  0.7530110648E+00  0.1000000000E+01  0.4698893521E-01  0.5515933129E+00 -0.2280002382E-16 -0.4411017233E-01  0.6641495322E+15  0.5493736960E+00 -0.2265902219E-16 -0.5382262549E-01
  0.6570463033E+00  0.1000000000E+01  0.4698893521E-01  0.3229994874E+00 -0.4202680515E-17 -0.1337628586E-01  0.6641495322E+15  0.3208903826E+00 -0.4244717095E-17 -0.2352135347E-01
  0.5429536967E+00  0.1000000000E+01  0.4698893521E-01  0.3439275228E+00  0.4531828315E-17 -0.1209621317E-02  0.6641495322E+15  0.3442349276E+00  0.4529588000E-17 -0.1376274945E-01
  0.4469889352E+00  0.1000000000E+01  0.4698893521E-01  0.2092522312E+00  0.4120355860E-17  0.8235535016E-02  0.6641495322E+15  0.2101480046E+00  0.4129884054E-17 -0.9070030267E-02
  0.4000000000E+00  0.1000000000E+01  0.4698893521E-01  0.3132460395E+00  0.2930245620E-17 -0.3609815656E-01  0.6641495322E+15  0.3110409530E+00  0.2943433303E-17 -0.5413634459E-01
  0.8000000000E+00  0.1000000000E+01  0.1429536967E+00  0.1168943361E+01 -0.5224811045E-16 -0.3730836227E+00  0.6641495322E+15  0.1165774334E+01 -0.5232357498E-16 -0.3839070608E+00
  0.7530110648E+00  0.1000000000E+01  0.1429536967E+00  0.1448471718E+01 -0.3273393367E-16 -0.2286123803E+00  0.6641495322E+15  0.1445939167E+01 -0.3265218836E-16 -0.2386939962E+00
  0.6570463033E+00  0.1000000000E+01  0.1429536967E+00  0.9754464038E+00 -0.2797937801E-17 -0.2231607790E+00  0.6641495322E+15  0.9738012723E+00 -0.2733626579E-17 -0.2315429768E+00
  0.5429536967E+00  0.1000000000E+01  0.1429536967E+00  0.8741280239E+00  0.1017748067E-16 -0.7536658975E-01  0.6641495322E+15  0.8783474587E+00  0.1029263742E-16 -0.8534844545E-01
  0.4469889352E+00  0.1000000000E+01  0.1429536967E+00  0.5525476593E+00  0.1013482463E-16 -0.1543897839E+00  0.6641495322E+15  0.5566590667E+00  0.1016441628E-16 -0.1665937628E+00
  0.4000000000E+00  0.1000000000E+01  0.1429536967E+00  0.6674217502E+00  0.1097429536E-16 -0.1294909040E+00  0.6641495322E+15  0.6632446085E+00  0.1091997607E-16 -0.1418830546E+00
  0.8000000000E+00  0.1000000000E+01  0.2570463033E+00  0.2292513697E+01 -0.1118168124E-16 -0.9810393429E+00  0.6641495322E+15  0.2286338536E+01 -0.1119133771E-16 -0.9938229741E+00
  0.7530110648E+00  0.1000000000E+01  0.2570463033E+00  0.2137664289E+01 -0.7638860625E-17 -0.7258266374E+00  0.6641495322E+15  0.2128478207E+01 -0.7711912613E-17 -0.7343285765E+00
  0.6570463033E+00  0.1000000000E+01  0.2570463033E+00  0.1609353029E+01 -0.2240034875E-17 -0.6576022085E+00  0.6641495322E+15  0.1604431379E+01 -0.2098689925E-17 -0.6583114241E+00
  0.5429536967E+00  0.1000000000E+01  0.2570463033E+00  0.1206985024E+01  0.3863169758E-17 -0.3867493743E+00  0.6641495322E+15  0.1211674275E+01  0.3940775306E-17 -0.3839902762E+00
  0.4469889352E+00  0.1000000000E+01  0.2570463033E+00  0.8367475583E+00  0.4464109016E-17 -0.4807587741E+00  0.6641495322E+15  0.8404519517E+00  0.4513873716E-17 -0.4769102242E+00
  0.4000000000E+00  0.1000000000E+01  0.2570463033E+00  0.7720265204E+00  0.4650998062E-17 -0.4266006818E+00  0.6641495322E+15  0.7686463227E+00  0.4645156532E-17 -0.4228308389E+00
  0.8000000000E+00  0.1000000000E+01  0.3530110648E+00  0.2611158220E+01  0.3730038305E-17 -0.1530294200E+01  0.6641495322E+15  0.2596628418E+01  0.3762617743E-17 -0.1546613166E+01
  0.7530110648E+00  0.1000000000E+01  0.3530110648E+00  0.2474077579E+01  0.9289202273E-17 -0.1307354586E+01  0.6641495322E+15  0.2454132747E+01  0.8147968301E-17 -0.1318756351E+01
  0.6570463033E+00  0.1000000000E+01  0.3530110648E+00  0.1874650750E+01  0.8588981335E-18 -0.1114515675E+01  0.6641495322E+15  0.1863573373E+01  0.1282483080E-17 -0.1117131443E+01
  0.5429536967E+00  0.1000000000E+01  0.3530110648E+00  0.1372885118E+01  0.3293927958E-18 -0.7818309415E+00  0.6641495322E+15  0.1376359397E+01  0.1223288498E-18 -0.7818294755E+00
  0.4469889352E+00  0.1000000000E+01  0.3530110648E+00  0.9092677982E+00  0.5100515664E-17 -0.7969744189E+00  0.6641495322E+15  0.9127065611E+00  0.5097153127E-17 -0.7958961053E+00
  0.4000000000E+00  0.1000000000E+01  0.3530110648E+00  0.8420330849E+00  0.5146469161E-17 -0.7399000023E+00  0.6641495322E+15  0.8414905418E+00  0.5146236971E-17 -0.7391722330E+00
  0.8000000000E+00  0.1000000000E+01  0.4000000000E+00  0.2746354957E+01 -0.2155327961E-17 -0.1858624931E+01  0.6641495322E+15  0.2729274323E+01 -0.2156089471E-17 -0.1870587739E+01
  0.7530110648E+00  0.1000000000E+01  0.4000000000E+00  0.2480232543E+01  0.1026300908E-17 -0.1574985376E+01  0.6641495322E+15  0.2455610258E+01  0.9515818465E-18 -0.1583401541E+01
  0.6570463033E+00  0.1000000000E+01  0.4000000000E+00  0.1917033322E+01  0.1881510194E-17 -0.1369884423E+01  0.6641495322E+15  0.1904541457E+01  0.1751756408E-17 -0.1373767460E+01
  0.5429536967E+00  0.1000000000E+01  0.4000000000E+00  0.1380702717E+01  0.7556176801E-17 -0.1041057106E+01  0.6641495322E+15  0.1384101009E+01  0.7654788886E-17 -0.1048610276E+01
  0.4469889352E+00  0.1000000000E+01  0.4000000000E+00  0.9810632828E+00  0.8188723877E-17 -0.9961276521E+00  0.6641495322E+15  0.9829225962E+00  0.8215894721E-17 -0.9990510667E+00
  0.4000000000E+00  0.1000000000E+01  0.4000000000E+00  0.8141492230E+00  0.7240585007E-17 -0.9088871652E+00  0.6641495322E+15  0.8152369173E+00  0.7236347652E-17 -0.9096704190E+00
ZONE I=6, J=6, K=1, F=POINT
  0.1200000000E+01  0.1000000000E+01  0.0000000000E+00 -0.3028634502E-01  0.5740496495E-19  0.3668421533E-01  0.6641495322E+15 -0.3127398666E-01  0.5878389295E-19  0.3590608851E-01
  0.1153011065E+01  0.1000000000E+01  0.0000000000E+00 -0.3646404001E-02 -0.1627503842E-18 -0.9656210778E-02  0.6641495322E+15 -0.4766107321E-02 -0.2127216894E-18 -0.9791852142E-02
  0.1057046303E+01  0.1000000000E+01  0.0000000000E+00  0.3198555796E-02  0.4660905053E-19  0.5884250198E-02  0.6641495322E+15  0.2094871518E-02  0.1718694722E-19  0.5952883796E-02
  0.9429536967E+00  0.1000000000E+01  0.0000000000E+00 -0.1381957156E-02  0.3413645757E-20 -0.8441089284E-02  0.6641495322E+15 -0.2467154631E-02  0.4021087271E-20 -0.8329965307E-02
  0.8469889352E+00  0.1000000000E+01  0.0000000000E+00  0.3960129315E-02 -0.2315872663E-19  0.5263157061E-02  0.6641495322E+15  0.2893157088E-02 -0.2352601355E-19  0.5229588407E-02
  0.8000000000E+00  0.1000000000E+01  0.0000000000E+00 -0.2682249837E-01 -0.9424503974E-19 -0.1125963331E-01  0.6641495322E+15 -0.2802702493E-01 -0.9701470803E-19 -0.1127426682E-01
  0.1200000000E+01  0.1000000000E+01  0.4698893521E-01  0.2266465222E+01 -0.4205719813E-16 -0.2047739733E+00  0.6641495322E+15  0.2268142508E+01 -0.4210070437E-16 -0.2079381089E+00
  0.1153011065E+01  0.1000000000E+01  0.4698893521E-01  0.1570842141E+01 -0.2601890295E-16 -0.5772065406E-01  0.6641495322E+15  0.1570500963E+01 -0.2600007721E-16 -0.6175224734E-01
  0.1057046303E+01  0.1000000000E+01  0.4698893521E-01  0.1423050984E+01 -0.1187257351E-16 -0.8956934993E-01  0.6641495322E+15  0.1422291797E+01 -0.1188922419E-16 -0.9479604259E-01
  0.9429536967E+00  0.1000000000E+01  0.4698893521E-01  0.8029248616E+00 -0.1427964433E-16 -0.7554422344E-01  0.6641495322E+15  0.8022368903E+00 -0.1426027045E-16 -0.8378054532E-01
  0.8469889352E+00  0.1000000000E+01  0.4698893521E-01  0.6927695805E+00 -0.2727047786E-16 -0.7134398279E-01  0.6641495322E+15  0.6909784605E+00 -0.2718128684E-16 -0.8095175449E-01
  0.8000000000E+00  0.1000000000E+01  0.4698893521E-01  0.2998388528E+00 -0.2246407479E-16  0.1755786923E-01  0.6641495322E+15  0.2977886258E+00 -0.2244081744E-16  0.8114942516E-02
  0.1200000000E+01  0.1000000000E+01  0.1429536967E+00  0.5281599126E+01 -0.5792370241E-16 -0.6384194859E+00  0.6641495322E+15  0.5290675932E+01 -0.5803862542E-16 -0.6388772896E+00
  0.1153011065E+01  0.1000000000E+01  0.1429536967E+00  0.3814492488E+01 -0.6695025872E-16 -0.8458862605E+00  0.6641495322E+15  0.3817895765E+01 -0.6679622104E-16 -0.8481833013E+00
  0.1057046303E+01  0.1000000000E+01  0.1429536967E+00  0.3404211618E+01 -0.3725765698E-16 -0.6296457932E+00  0.6641495322E+15  0.3406546042E+01 -0.3727280093E-16 -0.6363270911E+00
  0.9429536967E+00  0.1000000000E+01  0.1429536967E+00  0.2116481971E+01 -0.3282868380E-16 -0.7370376378E+00  0.6641495322E+15  0.2118438725E+01 -0.3283040853E-16 -0.7467998409E+00
  0.8469889352E+00  0.1000000000E+01  0.1429536967E+00  0.1809497575E+01 -0.4897446984E-16 -0.3910524330E+00  0.6641495322E+15  0.1808036061E+01 -0.4888659113E-16 -0.4020823958E+00
  0.8000000000E+00  0.1000000000E+01  0.1429536967E+00  0.1084583673E+01 -0.5448116115E-16 -0.3747231323E+00  0.6641495322E+15  0.1083046305E+01 -0.5457286383E-16 -0.3855186245E+00
  0.1200000000E+01  0.1000000000E+01  0.2570463033E+00  0.5673596350E+01 -0.5466011544E-17 -0.1780911533E+01  0.6641495322E+15  0.5681723839E+01 -0.5407020112E-17 -0.1785165546E+01
  0.1153011065E+01  0.1000000000E+01  0.2570463033E+00  0.5125222758E+01 -0.3685347481E-16 -0.2033426437E+01  0.6641495322E+15  0.5133588977E+01 -0.3775697286E-16 -0.2040162633E+01
  0.1057046303E+01  0.1000000000E+01  0.2570463033E+00  0.4260168355E+01 -0.2967668964E-16 -0.1643018993E+01  0.6641495322E+15  0.4267695955E+01 -0.2967004427E-16 -0.1653738114E+01
  0.9429536967E+00  0.1000000000E+01  0.2570463033E+00  0.3253962015E+01 -0.2872520258E-16 -0.1689570033E+01  0.6641495322E+15  0.3257667682E+01 -0.2889521979E-16 -0.1704304416E+01
  0.8469889352E+00  0.1000000000E+01  0.2570463033E+00  0.2673897906E+01 -0.1209028636E-16 -0.1055447127E+01  0.6641495322E+15  0.2671724014E+01 -0.1237061170E-16 -0.1070353011E+01
  0.8000000000E+00  0.1000000000E+01  0.2570463033E+00  0.2255543492E+01 -0.1134251757E-16 -0.9836421112E+00  0.6641495322E+15  0.2249075833E+01 -0.1134569818E-16 -0.9960210785E+00
  0.1200000000E+01  0.1000000000E+01  0.3530110648E+00  0.6054088040E+01  0.3346422657E-16 -0.2955757450E+01  0.6641495322E+15  0.6067882949E+01  0.3348321858E-16 -0.2963328892E+01
  0.1153011065E+01  0.1000000000E+01  0.3530110648E+00  0.5312988717E+01  0.1451567321E-16 -0.2893145971E+01  0.6641495322E+15  0.5324147421E+01  0.1438348540E-16 -0.2901953382E+01
  0.1057046303E+01  0.1000000000E+01  0.3530110648E+00  0.4555729225E+01 -0.5887323538E-17 -0.2533524050E+01  0.6641495322E+15  0.4567393843E+01 -0.5742029291E-17 -0.2544597742E+01
  0.9429536967E+00  0.1000000000E+01  0.3530110648E+00  0.3567708150E+01 -0.1284931169E-16 -0.2331314456E+01  0.6641495322E+15  0.3575066017E+01 -0.1292717147E-16 -0.2348569470E+01
  0.8469889352E+00  0.1000000000E+01  0.3530110648E+00  0.3059000314E+01  0.1258785071E-17 -0.1719451925E+01  0.6641495322E+15  0.3053508623E+01  0.1251682934E-17 -0.1738438887E+01
  0.8000000000E+00  0.1000000000E+01  0.3530110648E+00  0.2564692987E+01  0.3786958202E-17 -0.1530586838E+01  0.6641495322E+15  0.2550886444E+01  0.3819952923E-17 -0.1546933400E+01
  0.1200000000E+01  0.1000000000E+01  0.4000000000E+00  0.5808737664E+01  0.3887732665E-16 -0.3282481438E+01  0.6641495322E+15  0.5821824657E+01  0.3887365295E-16 -0.3280371523E+01
  0.1153011065E+01  0.1000000000E+01  0.4000000000E+00  0.5428194426E+01  0.3031971988E-16 -0.3411297848E+01  0.6641495322E+15  0.5439620378E+01  0.3049176328E-16 -0.3409751783E+01
  0.1057046303E+01  0.1000000000E+01  0.4000000000E+00  0.4532486768E+01  0.5239410816E-17 -0.2934390961E+01  0.6641495322E+15  0.4546268546E+01  0.5379536133E-17 -0.2936002608E+01
  0.9429536967E+00  0.1000000000E+01  0.4000000000E+00  0.3666005430E+01 -0.1189571430E-16 -0.2708836658E+01  0.6641495322E+15  0.3675579037E+01 -0.1204616351E-16 -0.2716164187E+01
  0.8469889352E+00  0.1000000000E+01  0.4000000000E+00  0.3043535235E+01 -0.6539779318E-17 -0.2015102283E+01  0.6641495322E+15  0.3038007180E+01 -0.6583860474E-17 -0.2026987547E+01
  0.8000000000E+00  0.1000000000E+01  0.4000000000E+00  0.2741953666E+01 -0.2137112802E-17 -0.1862045083E+01  0.6641495322E+15  0.2725058361E+01 -0.2138087908E-17 -0.1873599700E+01
ZONE I=6, J=6, K=1, F=POINT
  0.1600000000E+01  0.1000000000E+01  0.0000000000E+00  0.1332145045E+00 -0.9294689671E-18 -0.7206197487E-01  0.6641495322E+15  0.1317126010E+00 -0.1043694647E-17 -0.7181905945E-01
  0.1553011065E+01  0.1000000000E+01  0.0000000000E+00  0.1307965793E-01 -0.1443268519E-17  0.4520487622E-01  0.6641495322E+15  0.1205628463E-01 -0.1421540968E-17  0.4502593780E-01
  0.1457046303E+01  0.1000000000E+01  0.0000000000E+00 -0.5037984242E-02 -0.1482313217E-18 -0.3253179081E-02  0.6641495322E+15 -0.6108544282E-02 -0.1410681801E-18 -0.3292086120E-02
  0.1342953697E+01  0.1000000000E+01  0.0000000000E+00  0.7134085774E-02  0.5058373936E-18  0.2974278787E-01  0.6641495322E+15  0.6304067922E-02  0.4611042226E-18  0.2965642578E-01
  0.1246988935E+01  0.1000000000E+01  0.0000000000E+00 -0.6191652519E-02  0.1379896869E-18 -0.8242973021E-02  0.6641495322E+15 -0.6853256881E-02  0.1307190022E-18 -0.8387800223E-02
  0.1200000000E+01  0.1000000000E+01  0.0000000000E+00  0.5892433289E-01  0.6186529014E-19  0.3673287745E-01  0.6641495322E+15  0.5815941646E-01  0.6346190497E-19  0.3594424623E-01
  0.1600000000E+01  0.1000000000E+01  0.4698893521E-01  0.3002285819E+01 -0.8759450733E-16  0.2305563597E+00  0.6641495322E+15  0.3002184324E+01 -0.8760062626E-16  0.2264827222E+00
  0.1553011065E+01  0.1000000000E+01  0.4698893521E-01  0.3512498951E+01 -0.4327510024E-16 -0.2732433594E+00  0.6641495322E+15  0.3514578764E+01 -0.4321066919E-16 -0.2757040636E+00
  0.1457046303E+01  0.1000000000E+01  0.4698893521E-01  0.2564916042E+01 -0.4291273624E-17 -0.8518441321E-01  0.6641495322E+15  0.2567219975E+01 -0.4355483083E-17 -0.8442425500E-01
  0.1342953697E+01  0.1000000000E+01  0.4698893521E-01  0.2578258433E+01  0.2863672229E-16 -0.5910265556E-01  0.6641495322E+15  0.2580914987E+01  0.2865977448E-16 -0.5830918206E-01
  0.1246988935E+01  0.1000000000E+01  0.4698893521E-01  0.2000925914E+01 -0.6974093760E-17 -0.2992782568E-01  0.6641495322E+15  0.2003977376E+01 -0.6839138598E-17 -0.3194757547E-01
  0.1200000000E+01  0.1000000000E+01  0.4698893521E-01  0.2364870850E+01 -0.4626872697E-16 -0.2104554048E+00  0.6641495322E+15  0.2365060833E+01 -0.4631140937E-16 -0.2132479054E+00
  0.1600000000E+01  0.1000000000E+01  0.1429536967E+00  0.6418589534E+01 -0.2656291729E-15 -0.1758359424E+01  0.6641495322E+15  0.6398954786E+01 -0.2658125963E-15 -0.1759590819E+01
  0.1553011065E+01  0.1000000000E+01  0.1429536967E+00  0.8134049181E+01 -0.1411923891E-15 -0.9238234939E+00  0.6641495322E+15  0.8131456293E+01 -0.1412809213E-15 -0.9228125493E+00
  0.1457046303E+01  0.1000000000E+01  0.1429536967E+00  0.6118912836E+01  0.3152331687E-16 -0.9131389156E+00  0.6641495322E+15  0.6120088524E+01  0.3141478149E-16 -0.9100526117E+00
  0.1342953697E+01  0.1000000000E+01  0.1429536967E+00  0.6104481908E+01  0.1003784779E-15 -0.2086242086E+00  0.6641495322E+15  0.6108964298E+01  0.1005604848E-15 -0.2062736559E+00
  0.1246988935E+01  0.1000000000E+01  0.1429536967E+00  0.4737438006E+01  0.2647701480E-16 -0.7666397856E+00  0.6641495322E+15  0.4743903287E+01  0.2614545872E-16 -0.7654754970E+00
  0.1200000000E+01  0.1000000000E+01  0.1429536967E+00  0.5448374354E+01 -0.6208307834E-16 -0.6329009069E+00  0.6641495322E+15  0.5446320214E+01 -0.6207352529E-16 -0.6340917744E+00
  0.1600000000E+01  0.1000000000E+01  0.2570463033E+00  0.1143037236E+02  0.1057800988E-15 -0.3541777573E+01  0.6641495322E+15  0.1142879708E+02  0.1056883434E-15 -0.3543089873E+01
  0.1553011065E+01  0.1000000000E+01  0.2570463033E+00  0.1037032563E+02  0.1281154486E-15 -0.2461338393E+01  0.6641495322E+15  0.1036770369E+02  0.1280634924E-15 -0.2456137020E+01
  0.1457046303E+01  0.1000000000E+01  0.2570463033E+00  0.9034616455E+01  0.1849618932E-15 -0.2353180685E+01  0.6641495322E+15  0.9037958171E+01  0.1850524167E-15 -0.2349345522E+01
  0.1342953697E+01  0.1000000000E+01  0.2570463033E+00  0.7418004722E+01  0.1321437649E-15 -0.1245136987E+01  0.6641495322E+15  0.7426508073E+01  0.1326126425E-15 -0.1246282040E+01
  0.1246988935E+01  0.1000000000E+01  0.2570463033E+00  0.6158879289E+01  0.4298591343E-16 -0.2007027370E+01  0.6641495322E+15  0.6167548778E+01  0.4337593385E-16 -0.2009775382E+01
  0.1200000000E+01  0.1000000000E+01  0.2570463033E+00  0.5713489910E+01 -0.5744066283E-17 -0.1771248796E+01  0.6641495322E+15  0.5722020558E+01 -0.5684677531E-17 -0.1778328648E+01
  0.1600000000E+01  0.1000000000E+01  0.3530110648E+00  0.9978166827E+01  0.2103114982E-15 -0.3991652053E+01  0.6641495322E+15  0.9964066205E+01  0.2102595935E-15 -0.3989652985E+01
  0.1553011065E+01  0.1000000000E+01  0.3530110648E+00  0.1016961147E+02  0.2131647303E-15 -0.3929316298E+01  0.6641495322E+15  0.1016470423E+02  0.2131080182E-15 -0.3927352992E+01
  0.1457046303E+01  0.1000000000E+01  0.3530110648E+00  0.8971244726E+01  0.1981905535E-15 -0.3548700262E+01  0.6641495322E+15  0.8978443201E+01  0.1985307217E-15 -0.3547313672E+01
  0.1342953697E+01  0.1000000000E+01  0.3530110648E+00  0.7693579918E+01  0.1494601867E-15 -0.2794693062E+01  0.6641495322E+15  0.7706591158E+01  0.1498795367E-15 -0.2796340604E+01
  0.1246988935E+01  0.1000000000E+01  0.3530110648E+00  0.6265674374E+01  0.6439668615E-16 -0.3003984374E+01  0.6641495322E+15  0.6277957609E+01  0.6417525798E-16 -0.3009712080E+01
  0.1200000000E+01  0.1000000000E+01  0.3530110648E+00  0.6132397460E+01  0.3358380551E-16 -0.2956110250E+01  0.6641495322E+15  0.6141965864E+01  0.3357006252E-16 -0.2963408937E+01
  0.1600000000E+01  0.1000000000E+01  0.4000000000E+00  0.1018191386E+02  0.2123535069E-15 -0.4675416672E+01  0.6641495322E+15  0.1017189967E+02  0.2122647686E-15 -0.4681331810E+01
  0.1553011065E+01  0.1000000000E+01  0.4000000000E+00  0.9517234612E+01  0.2257480099E-15 -0.3937528296E+01  0.6641495322E+15  0.9514414755E+01  0.2259967048E-15 -0.3941546890E+01
  0.1457046303E+01  0.1000000000E+01  0.4000000000E+00  0.8892420525E+01  0.1930824839E-15 -0.4096189189E+01  0.6641495322E+15  0.8897977020E+01  0.1931376796E-15 -0.4096204932E+01
  0.1342953697E+01  0.1000000000E+01  0.4000000000E+00  0.7466475012E+01  0.1565640955E-15 -0.3224216082E+01  0.6641495322E+15  0.7481766049E+01  0.1573525813E-15 -0.3221081625E+01
  0.1246988935E+01  0.1000000000E+01  0.4000000000E+00  0.6407822815E+01  0.6436482079E-16 -0.3591839525E+01  0.6641495322E+15  0.6421111416E+01  0.6430992350E-16 -0.3588102765E+01
  0.1200000000E+01  0.1000000000E+01  0.4000000000E+00  0.5782632659E+01  0.3913525119E-16 -0.3270277930E+01  0.6641495322E+15  0.5796603747E+01  0.3911723921E-16 -0.3270904954E+01
ZONE I=6, J=6, K=1, F=POINT
  0.2000000000E+01  0.1000000000E+01  0.0000000000E+00  0.2402231473E+01  0.7431242708E-19  0.2123403180E+02  0.6641495322E+15  0.2430186304E+01  0.9503442557E-19  0.2215535199E+02
  0.1953011065E+01  0.1000000000E+01  0.0000000000E+00  0.1294629151E+01 -0.3739634100E-16 -0.1374381626E+00  0.6641495322E+15  0.1298263060E+01 -0.3612709318E-16 -0.1504350306E+00
  0.1857046303E+01  0.1000000000E+01  0.0000000000E+00 -0.3033239866E+00 -0.1860814425E-16  0.1518441845E+00  0.6641495322E+15 -0.3046921207E+00 -0.1914985533E-16  0.1502843089E+00
  0.1742953697E+01  0.1000000000E+01  0.0000000000E+00  0.1372674105E+00  0.2226560337E-18 -0.3731651749E-01  0.6641495322E+15  0.1369911262E+00  0.1079689780E-18 -0.3706470484E-01
  0.1646988935E+01  0.1000000000E+01  0.0000000000E+00 -0.1239940427E+00  0.3054728615E-18  0.6038789277E-01  0.6641495322E+15 -0.1247337979E+00  0.2806563684E-18  0.5949171921E-01
  0.1600000000E+01  0.1000000000E+01  0.0000000000E+00  0.9094611317E-01 -0.1009311298E-17 -0.8412322713E-01  0.6641495322E+15  0.8953706418E-01 -0.1125237540E-17 -0.8252836651E-01
  0.2000000000E+01  0.1000000000E+01  0.4698893521E-01 -0.1241137150E-01  0.7491343541E-18  0.4848551024E+02  0.6641495322E+15 -0.5501030060E-01  0.6893072677E-18  0.4866009381E+02
  0.1953011065E+01  0.1000000000E+01  0.4698893521E-01  0.1095650580E+02  0.1356411081E-15  0.1463073823E+01  0.6641495322E+15  0.1095021856E+02  0.1344945003E-15  0.1485440770E+01
  0.1857046303E+01  0.1000000000E+01  0.4698893521E-01  0.1161392567E+02  0.2872433639E-15 -0.1892143160E+01  0.6641495322E+15  0.1162282874E+02  0.2880082904E-15 -0.1888323702E+01
  0.1742953697E+01  0.1000000000E+01  0.4698893521E-01  0.5723784848E+01 -0.4185332644E-16 -0.6388556729E+00  0.6641495322E+15  0.5732513211E+01 -0.4152838418E-16 -0.6459373526E+00
  0.1646988935E+01  0.1000000000E+01  0.4698893521E-01  0.4456576280E+01 -0.1218024386E-15 -0.6247190668E+00  0.6641495322E+15  0.4458778034E+01 -0.1221090252E-15 -0.6291680403E+00
  0.1600000000E+01  0.1000000000E+01  0.4698893521E-01  0.2837701571E+01 -0.8473667382E-16  0.2163891706E+00  0.6641495322E+15  0.2847242302E+01 -0.8456812560E-16  0.2070375087E+00
  0.2000000000E+01  0.1000000000E+01  0.1429536967E+00 -0.2818402798E+00  0.2731103522E-17  0.5050668878E+02  0.6641495322E+15 -0.2576827273E+00  0.2741948104E-17  0.5044269306E+02
  0.1953011065E+01  0.1000000000E+01  0.1429536967E+00  0.2780386602E+01 -0.5117123578E-15  0.1636392486E+02  0.6641495322E+15  0.2773269629E+01 -0.5110018409E-15  0.1640561608E+02
  0.1857046303E+01  0.1000000000E+01  0.1429536967E+00  0.1267775441E+02 -0.2622325958E-15 -0.3645483785E+01  0.6641495322E+15  0.1269121761E+02 -0.2632622710E-15 -0.3639324532E+01
  0.1742953697E+01  0.1000000000E+01  0.1429536967E+00  0.9970211510E+01 -0.3003907620E-16 -0.4046690407E+01  0.6641495322E+15  0.9981169781E+01 -0.2948449413E-16 -0.4058586197E+01
  0.1646988935E+01  0.1000000000E+01  0.1429536967E+00  0.9378670472E+01 -0.1601231657E-15 -0.2017600575E+01  0.6641495322E+15  0.9375249330E+01 -0.1598640750E-15 -0.2021567038E+01
  0.1600000000E+01  0.1000000000E+01  0.1429536967E+00  0.6046217890E+01 -0.2822453845E-15 -0.1758572347E+01  0.6641495322E+15  0.6067205329E+01 -0.2827591011E-15 -0.1764239619E+01
  0.2000000000E+01  0.1000000000E+01  0.2570463033E+00  0.1918967861E-01  0.1126936791E-17  0.4987618646E+02  0.6641495322E+15  0.1817245294E-01  0.1088225103E-17  0.4987955041E+02