TITLE = "Generated from ../MESH/Convergence_0000000000.hmesh and Convergence_0000007800.hsol"
VARIABLES = "x","y","z","veloT_x","veloT_y","veloT_z","slr_4","velo_x","velo_y","velo_z"
ZONE I=6, J=6, K=1, F=POINT
  0.4000000000E+00  0.1000000000E+01  0.0000000000E+00  0.1588936369E-02  0.3603504132E-19  0.6913585426E-02  0.4555429096E+15 -0.1384092499E-01  0.3172044665E-19  0.7275755922E-02
  0.3530110648E+00  0.1000000000E+01  0.0000000000E+00  0.1142798019E-01  0.6656148943E-20 -0.7885326705E-03  0.4555429096E+15 -0.4519244935E-02  0.1252039237E-19 -0.4957970372E-03
  0.2570463033E+00  0.1000000000E+01  0.0000000000E+00  0.9136419935E-02  0.3918514859E-21  0.1898930793E-02  0.4555429096E+15 -0.3498967818E-02  0.3448325012E-20  0.2295384943E-02
  0.1429536967E+00  0.1000000000E+01  0.0000000000E+00  0.6280414686E-02 -0.3541368606E-21 -0.1060413431E-02  0.4555429096E+15 -0.4903736252E-02  0.7851368886E-21 -0.1007330854E-02
  0.4698893521E-01  0.1000000000E+01  0.0000000000E+00  0.7282895452E-02 -0.1490433792E-20  0.9034045799E-03  0.4555429096E+15 -0.1070144182E-02 -0.1730204734E-20  0.1960984594E-02
  0.0000000000E+00  0.1000000000E+01  0.0000000000E+00 -0.6681870057E-02 -0.3876759027E-23  0.1212468442E-02  0.4555429096E+15 -0.7572318735E-02  0.5687166363E-23  0.2154704604E-02
  0.4000000000E+00  0.1000000000E+01  0.4698893521E-01  0.3311349846E+00  0.3158219932E-17 -0.2844319729E-01  0.4555429096E+15  0.3024918978E+00  0.3323435113E-17 -0.1233435225E+00
  0.3530110648E+00  0.1000000000E+01  0.4698893521E-01  0.1814482261E+00  0.2605221586E-17 -0.2202464186E-03  0.4555429096E+15  0.1502980950E+00  0.3033586526E-17 -0.8010243093E-01
  0.2570463033E+00  0.1000000000E+01  0.4698893521E-01  0.1350741727E+00  0.1315016374E-17 -0.2053526681E-01  0.4555429096E+15  0.1079124795E+00  0.1274535198E-17 -0.7212297925E-01
  0.1429536967E+00  0.1000000000E+01  0.4698893521E-01  0.3364102272E-01  0.5106084393E-18 -0.2791784720E-01  0.4555429096E+15  0.6608915897E-02  0.4249062382E-18 -0.4607458907E-01
  0.4698893521E-01  0.1000000000E+01  0.4698893521E-01  0.1902438178E-01  0.1407993463E-18 -0.3055516316E-01  0.4555429096E+15 -0.2562499368E-03  0.1233556593E-18 -0.2249562336E-01
  0.0000000000E+00  0.1000000000E+01  0.4698893521E-01 -0.1714884746E-01  0.4269992034E-21 -0.3060242295E-02  0.4555429096E+15 -0.1806355994E-01  0.8342149724E-21  0.4939282068E-02
  0.4000000000E+00  0.1000000000E+01  0.1429536967E+00  0.7283593625E+00  0.1189906762E-16 -0.1089955902E+00  0.4555429096E+15  0.6722945259E+00  0.1110336480E-16 -0.2330376072E+00
  0.3530110648E+00  0.1000000000E+01  0.1429536967E+00  0.4375755483E+00  0.6794374922E-17 -0.1494152640E+00  0.4555429096E+15  0.3733448153E+00  0.7590529119E-17 -0.2613545009E+00
  0.2570463033E+00  0.1000000000E+01  0.1429536967E+00  0.3064402532E+00  0.3233484205E-17 -0.9939865849E-01  0.4555429096E+15  0.2440328990E+00  0.3166998920E-17 -0.1777953894E+00
  0.1429536967E+00  0.1000000000E+01  0.1429536967E+00  0.8609881010E-01  0.1333056576E-17 -0.1285058448E+00  0.4555429096E+15  0.1985418221E-01  0.1314083786E-17 -0.1593811227E+00
  0.4698893521E-01  0.1000000000E+01  0.1429536967E+00  0.1315232651E-01  0.4715570337E-18 -0.3037058919E-01  0.4555429096E+15 -0.3208631854E-01  0.4378406918E-18 -0.2166365733E-01
  0.0000000000E+00  0.1000000000E+01  0.1429536967E+00 -0.2182660282E-01 -0.2426758561E-20 -0.6537738225E-02  0.4555429096E+15 -0.2153977052E-01 -0.4378725453E-21  0.2706548845E-02
  0.4000000000E+00  0.1000000000E+01  0.2570463033E+00  0.9399642242E+00  0.5544863563E-17 -0.4187275309E+00  0.4555429096E+15  0.8593835582E+00  0.5474607765E-17 -0.5293210124E+00
  0.3530110648E+00  0.1000000000E+01  0.2570463033E+00  0.6993960859E+00  0.4770511216E-17 -0.4698778465E+00  0.4555429096E+15  0.6065891157E+00  0.3381522603E-17 -0.5664537435E+00
  0.2570463033E+00  0.1000000000E+01  0.2570463033E+00  0.4447070959E+00  0.3087647912E-17 -0.3337395431E+00  0.4555429096E+15  0.3446244085E+00  0.3104330982E-17 -0.4060200972E+00
  0.1429536967E+00  0.1000000000E+01  0.2570463033E+00  0.1720745981E+00  0.2093462283E-17 -0.3026794934E+00  0.4555429096E+15  0.5574889845E-01  0.2109379588E-17 -0.3317588881E+00
  0.4698893521E-01  0.1000000000E+01  0.2570463033E+00  0.3408888033E-01  0.1083964225E-17 -0.6433078412E-01  0.4555429096E+15 -0.4475449391E-01  0.1203782816E-17 -0.5529620252E-01
  0.0000000000E+00  0.1000000000E+01  0.2570463033E+00 -0.1449143853E-01 -0.1414780914E-20 -0.3167137820E-02  0.4555429096E+15 -0.1438152160E-01 -0.4327724405E-20  0.3821409563E-02
  0.4000000000E+00  0.1000000000E+01  0.3530110648E+00  0.1124349574E+01  0.5294849531E-17 -0.8077930086E+00  0.4555429096E+15  0.9864249769E+00  0.5418737842E-17 -0.9569583869E+00
  0.3530110648E+00  0.1000000000E+01  0.3530110648E+00  0.8143274340E+00  0.4754763080E-17 -0.8104359073E+00  0.4555429096E+15  0.6882262089E+00  0.4736665092E-17 -0.9322031232E+00
  0.2570463033E+00  0.1000000000E+01  0.3530110648E+00  0.4982880878E+00  0.2708753275E-17 -0.6102115034E+00  0.4555429096E+15  0.3668938937E+00  0.3927985234E-17 -0.6953385817E+00
  0.1429536967E+00  0.1000000000E+01  0.3530110648E+00  0.1957424941E+00  0.2445867742E-17 -0.4723818757E+00  0.4555429096E+15  0.3354942353E-01  0.2699508142E-17 -0.5034274667E+00
  0.4698893521E-01  0.1000000000E+01  0.3530110648E+00  0.3873281695E-01  0.8132587844E-18 -0.1314376582E+00  0.4555429096E+15 -0.6726681690E-01  0.7026077187E-18 -0.1194017503E+00
  0.0000000000E+00  0.1000000000E+01  0.3530110648E+00 -0.1495348206E-01  0.5991853002E-20 -0.7363560764E-03  0.4555429096E+15 -0.1471454781E-01  0.3740945620E-20  0.5625583950E-02
  0.4000000000E+00  0.1000000000E+01  0.4000000000E+00  0.1146398623E+01  0.6999831512E-17 -0.1058066771E+01  0.4555429096E+15  0.9762018462E+00  0.7001869283E-17 -0.1225951760E+01
  0.3530110648E+00  0.1000000000E+01  0.4000000000E+00  0.8707011487E+00  0.5890375670E-17 -0.1000312950E+01  0.4555429096E+15  0.7218888901E+00  0.6308162734E-17 -0.1144962014E+01
  0.2570463033E+00  0.1000000000E+01  0.4000000000E+00  0.5154123892E+00  0.2558996594E-17 -0.7441102792E+00  0.4555429096E+15  0.3629900354E+00  0.2002320921E-17 -0.8417544345E+00
  0.1429536967E+00  0.1000000000E+01  0.4000000000E+00  0.2124009354E+00  0.2162253476E-17 -0.5560998100E+00  0.4555429096E+15  0.2476267548E-01  0.1888035899E-17 -0.5921892936E+00
  0.4698893521E-01  0.1000000000E+01  0.4000000000E+00  0.3418549517E-01  0.6361162398E-18 -0.1583340331E+00  0.4555429096E+15 -0.8636561828E-01  0.5989490469E-18 -0.1489177354E+00
  0.0000000000E+00  0.1000000000E+01  0.4000000000E+00 -0.7306041980E-02  0.6918596329E-20  0.5167998554E-03  0.4555429096E+15 -0.7221405027E-02  0.8825393759E-20  0.4683145207E-02
ZONE I=6, J=6, K=1, F=POINT
  0.8000000000E+00  0.1000000000E+01  0.0000000000E+00  0.4894245722E-01 -0.6794812514E-19 -0.1231185738E-01  0.4555429096E+15  0.1931797949E-01 -0.6840251287E-19 -0.1222584123E-01
  0.7530110648E+00  0.1000000000E+01  0.0000000000E+00  0.3096100352E-01  0.7510211434E-18  0.5401449183E-02  0.4555429096E+15  0.2246323862E-02  0.1223227211E-18  0.5728113447E-02
  0.6570463033E+00  0.1000000000E+01  0.0000000000E+00  0.2409481026E-01  0.3370010613E-18 -0.5098635672E-03  0.4555429096E+15 -0.1800051107E-02 -0.3089075939E-20  0.1201126907E-03
  0.5429536967E+00  0.1000000000E+01  0.0000000000E+00  0.2030551493E-01  0.5283298883E-18  0.6054559671E-02  0.4555429096E+15 -0.8631457589E-03 -0.2330071335E-19  0.6848633179E-02
  0.4469889352E+00  0.1000000000E+01  0.0000000000E+00  0.1360245392E-01  0.4353888441E-18 -0.1810723816E-03  0.4555429096E+15 -0.3665892884E-02 -0.9039153730E-19  0.5046293114E-03
  0.4000000000E+00  0.1000000000E+01  0.0000000000E+00  0.2857587455E-01  0.3948380227E-19  0.6617345924E-02  0.4555429096E+15  0.1272942349E-01  0.3555127237E-19  0.6984484395E-02
  0.8000000000E+00  0.1000000000E+01  0.4698893521E-01  0.5183082219E+00 -0.2359913453E-16  0.4502202572E-01  0.4555429096E+15  0.4931359809E+00 -0.2334395381E-16 -0.6777636783E-01
  0.7530110648E+00  0.1000000000E+01  0.4698893521E-01  0.6935393579E+00 -0.2669021167E-16 -0.1331077093E-01  0.4555429096E+15  0.6679317012E+00 -0.2505716311E-16 -0.1299795454E+00
  0.6570463033E+00  0.1000000000E+01  0.4698893521E-01  0.4376680004E+00 -0.2809451936E-17  0.2831009639E-01  0.4555429096E+15  0.4113037831E+00 -0.3326716387E-17 -0.9565808324E-01
  0.5429536967E+00  0.1000000000E+01  0.4698893521E-01  0.4345439368E+00  0.5984543693E-17  0.3997199054E-01  0.4555429096E+15  0.4078671259E+00  0.5454542092E-17 -0.8208836156E-01
  0.4469889352E+00  0.1000000000E+01  0.4698893521E-01  0.2814179224E+00  0.4060171243E-17  0.2784825925E-01  0.4555429096E+15  0.2539099889E+00  0.4321457512E-17 -0.7940893246E-01
  0.4000000000E+00  0.1000000000E+01  0.4698893521E-01  0.3734400626E+00  0.2910303600E-17 -0.2921532583E-01  0.4555429096E+15  0.3445069804E+00  0.3077794227E-17 -0.1241002466E+00
  0.8000000000E+00  0.1000000000E+01  0.1429536967E+00  0.1468083953E+01 -0.4791226680E-16 -0.3053657898E+00  0.4555429096E+15  0.1452083372E+01 -0.4842174851E-16 -0.4603813096E+00
  0.7530110648E+00  0.1000000000E+01  0.1429536967E+00  0.1713583054E+01 -0.3212908341E-16 -0.1639860706E+00  0.4555429096E+15  0.1694984352E+01 -0.3095722590E-16 -0.3219909735E+00
  0.6570463033E+00  0.1000000000E+01  0.1429536967E+00  0.1188739467E+01 -0.4256181160E-17 -0.1693189796E+00  0.4555429096E+15  0.1159708999E+01 -0.3156978781E-17 -0.3215548002E+00
  0.5429536967E+00  0.1000000000E+01  0.1429536967E+00  0.1044342067E+01  0.1348074221E-16 -0.3715811742E-01  0.4555429096E+15  0.1008279571E+01  0.1235538207E-16 -0.1753961261E+00
  0.4469889352E+00  0.1000000000E+01  0.1429536967E+00  0.6866959827E+00  0.1012016241E-16 -0.1279647672E+00  0.4555429096E+15  0.6427462965E+00  0.1107276682E-16 -0.2583098774E+00
  0.4000000000E+00  0.1000000000E+01  0.1429536967E+00  0.7798918435E+00  0.1262795154E-16 -0.1084166755E+00  0.4555429096E+15  0.7239618141E+00  0.1183597359E-16 -0.2324786236E+00
  0.8000000000E+00  0.1000000000E+01  0.2570463033E+00  0.2745059108E+01 -0.8841646051E-17 -0.9482061110E+00  0.4555429096E+15  0.2737704823E+01 -0.8799217019E-17 -0.1126103948E+01
  0.7530110648E+00  0.1000000000E+01  0.2570463033E+00  0.2545193465E+01 -0.4026994017E-17 -0.6958976102E+00  0.4555429096E+15  0.2522507538E+01 -0.6429806684E-17 -0.8724774477E+00
  0.6570463033E+00  0.1000000000E+01  0.2570463033E+00  0.1932600691E+01 -0.2876699526E-17 -0.6079006692E+00  0.4555429096E+15  0.1890826739E+01 -0.1669508673E-17 -0.7813977328E+00
  0.5429536967E+00  0.1000000000E+01  0.2570463033E+00  0.1474306955E+01  0.6667801171E-17 -0.3122220184E+00  0.4555429096E+15  0.1422913957E+01  0.5837059126E-17 -0.4785497790E+00
  0.4469889352E+00  0.1000000000E+01  0.2570463033E+00  0.1070690359E+01  0.6736458164E-17 -0.4438933779E+00  0.4555429096E+15  0.1005135146E+01  0.5094012513E-17 -0.5757225671E+00
  0.4000000000E+00  0.1000000000E+01  0.2570463033E+00  0.9715537659E+00  0.5586774615E-17 -0.4180149798E+00  0.4555429096E+15  0.8902048193E+00  0.5508332549E-17 -0.5286843955E+00
  0.8000000000E+00  0.1000000000E+01  0.3530110648E+00  0.3179418483E+01  0.3406854341E-17 -0.1632380150E+01  0.4555429096E+15  0.3181773308E+01  0.3517860627E-17 -0.1870835442E+01
  0.7530110648E+00  0.1000000000E+01  0.3530110648E+00  0.2976924580E+01  0.1347483325E-16 -0.1412982919E+01  0.4555429096E+15  0.2952658530E+01  0.1195072288E-16 -0.1654439601E+01
  0.6570463033E+00  0.1000000000E+01  0.3530110648E+00  0.2223521174E+01 -0.1733105174E-17 -0.1168187487E+01  0.4555429096E+15  0.2207869796E+01  0.2742590016E-17 -0.1442334236E+01
  0.5429536967E+00  0.1000000000E+01  0.3530110648E+00  0.1720388869E+01 -0.8611814163E-17 -0.7525656193E+00  0.4555429096E+15  0.1642404640E+01 -0.1093530490E-17 -0.1063914100E+01
  0.4469889352E+00  0.1000000000E+01  0.3530110648E+00  0.1302865636E+01  0.5116595557E-17 -0.8273578154E+00  0.4555429096E+15  0.1144005619E+01  0.6550847912E-17 -0.1035864936E+01
  0.4000000000E+00  0.1000000000E+01  0.3530110648E+00  0.1156877947E+01  0.5250452504E-17 -0.8074501506E+00  0.4555429096E+15  0.1018673066E+01  0.5371120726E-17 -0.9567132585E+00
  0.8000000000E+00  0.1000000000E+01  0.4000000000E+00  0.3363985650E+01 -0.4626604184E-17 -0.2068779317E+01  0.4555429096E+15  0.3384601875E+01 -0.4651287769E-17 -0.2303655854E+01
  0.7530110648E+00  0.1000000000E+01  0.4000000000E+00  0.3033675579E+01 -0.6106645602E-18 -0.1801317190E+01  0.4555429096E+15  0.3012475912E+01  0.1275154466E-18 -0.2045107238E+01
  0.6570463033E+00  0.1000000000E+01  0.4000000000E+00  0.2268467231E+01  0.1161337578E-17 -0.1588752439E+01  0.4555429096E+15  0.2291013355E+01 -0.3234720988E-18 -0.1884290775E+01
  0.5429536967E+00  0.1000000000E+01  0.4000000000E+00  0.1758071918E+01  0.1045904094E-16 -0.1179594243E+01  0.4555429096E+15  0.1664130954E+01  0.4932129532E-17 -0.1547337099E+01
  0.4469889352E+00  0.1000000000E+01  0.4000000000E+00  0.1448471968E+01  0.1461673433E-16 -0.1151621570E+01  0.4555429096E+15  0.1206443034E+01  0.1043851869E-16 -0.1387465017E+01
  0.4000000000E+00  0.1000000000E+01  0.4000000000E+00  0.1156944898E+01  0.6988996665E-17 -0.1056954255E+01  0.4555429096E+15  0.9874622911E+00  0.6999151873E-17 -0.1225117943E+01
ZONE I=6, J=6, K=1, F=POINT
  0.1200000000E+01  0.1000000000E+01  0.0000000000E+00  0.1061410741E-01  0.7419321332E-19  0.3622058235E-01  0.4555429096E+15 -0.1977204021E-01  0.7743112565E-19  0.3627181520E-01
  0.1153011065E+01  0.1000000000E+01  0.0000000000E+00  0.3716089367E-01  0.1749165290E-17 -0.9885110140E-02  0.4555429096E+15  0.5654134145E-02  0.3743913062E-18 -0.9941729240E-02
  0.1057046303E+01  0.1000000000E+01  0.0000000000E+00  0.4227662751E-01  0.1055502091E-17  0.5455939808E-02  0.4555429096E+15  0.1018601939E-01  0.2229925175E-18  0.5489814872E-02
  0.9429536967E+00  0.1000000000E+01  0.0000000000E+00  0.3448966608E-01  0.3177599472E-19 -0.8672319847E-02  0.4555429096E+15  0.2768602265E-02  0.3839737215E-19 -0.8516046610E-02
  0.8469889352E+00  0.1000000000E+01  0.0000000000E+00  0.3655577559E-01 -0.2453636492E-19  0.4845770857E-02  0.4555429096E+15  0.5824799747E-02 -0.1662182707E-19  0.5069622839E-02
  0.8000000000E+00  0.1000000000E+01  0.0000000000E+00  0.3660972606E-02 -0.7494284984E-19 -0.1176634787E-01  0.4555429096E+15 -0.2609392497E-01 -0.7685641096E-19 -0.1169740133E-01
  0.1200000000E+01  0.1000000000E+01  0.4698893521E-01  0.2483812994E+01 -0.4712935188E-16 -0.1241131040E+00  0.4555429096E+15  0.2480075121E+01 -0.4683899507E-16 -0.1791884995E+00
  0.1153011065E+01  0.1000000000E+01  0.4698893521E-01  0.1788671252E+01 -0.2936911540E-16  0.1498677687E-01  0.4555429096E+15  0.1782119755E+01 -0.2904471193E-16 -0.4568381510E-01
  0.1057046303E+01  0.1000000000E+01  0.4698893521E-01  0.1634433272E+01 -0.9988585427E-17 -0.3104509282E-01  0.4555429096E+15  0.1622740953E+01 -0.1025777346E-16 -0.1090758323E+00
  0.9429536967E+00  0.1000000000E+01  0.4698893521E-01  0.9948769701E+00 -0.1638796593E-16 -0.2947149161E-01  0.4555429096E+15  0.9767890913E+00 -0.1593245878E-16 -0.1274247184E+00
  0.8469889352E+00  0.1000000000E+01  0.4698893521E-01  0.8656874753E+00 -0.3089863709E-16 -0.3763063641E-01  0.4555429096E+15  0.8426242903E+00 -0.2976591672E-16 -0.1468079728E+00
  0.8000000000E+00  0.1000000000E+01  0.4698893521E-01  0.4570712742E+00 -0.2291712490E-16  0.4706653203E-01  0.4555429096E+15  0.4324993634E+00 -0.2267575277E-16 -0.6576756019E-01
  0.1200000000E+01  0.1000000000E+01  0.1429536967E+00  0.5724650942E+01 -0.6276289550E-16 -0.5140083426E+00  0.4555429096E+15  0.5739922571E+01 -0.6299757135E-16 -0.5799630925E+00
  0.1153011065E+01  0.1000000000E+01  0.1429536967E+00  0.4262889675E+01 -0.6161134734E-16 -0.7320660406E+00  0.4555429096E+15  0.4277919203E+01 -0.6040735486E-16 -0.8087610810E+00
  0.1057046303E+01  0.1000000000E+01  0.1429536967E+00  0.3828342696E+01 -0.3626631094E-16 -0.5348600671E+00  0.4555429096E+15  0.3842912519E+01 -0.3635662281E-16 -0.6392936969E+00
  0.9429536967E+00  0.1000000000E+01  0.1429536967E+00  0.2497274358E+01 -0.3126216801E-16 -0.6561115193E+00  0.4555429096E+15  0.2498538047E+01 -0.3136033001E-16 -0.7915218798E+00
  0.8469889352E+00  0.1000000000E+01  0.1429536967E+00  0.2148232583E+01 -0.5008579999E-16 -0.3183286175E+00  0.4555429096E+15  0.2135070469E+01 -0.4903102279E-16 -0.4689913966E+00
  0.8000000000E+00  0.1000000000E+01  0.1429536967E+00  0.1383690459E+01 -0.5008886392E-16 -0.3071241917E+00  0.4555429096E+15  0.1369370957E+01 -0.5061510522E-16 -0.4620353191E+00
  0.1200000000E+01  0.1000000000E+01  0.2570463033E+00  0.6367156764E+01 -0.1169001487E-16 -0.1662702612E+01  0.4555429096E+15  0.6403778029E+01 -0.1170649846E-16 -0.1725917704E+01
  0.1153011065E+01  0.1000000000E+01  0.2570463033E+00  0.5822151026E+01 -0.5120670648E-16 -0.1935542174E+01  0.4555429096E+15  0.5870187959E+01 -0.5723966624E-16 -0.2013965586E+01
  0.1057046303E+01  0.1000000000E+01  0.2570463033E+00  0.4917881454E+01 -0.3033026156E-16 -0.1588479375E+01  0.4555429096E+15  0.4967718285E+01 -0.3026811954E-16 -0.1698871519E+01
  0.9429536967E+00  0.1000000000E+01  0.2570463033E+00  0.3832363100E+01 -0.3359001752E-16 -0.1665278182E+01  0.4555429096E+15  0.3861257830E+01 -0.3503295541E-16 -0.1809148770E+01
  0.8469889352E+00  0.1000000000E+01  0.2570463033E+00  0.3174450105E+01 -0.5043914990E-17 -0.1023917335E+01  0.4555429096E+15  0.3178443674E+01 -0.7191439833E-17 -0.1194598861E+01
  0.8000000000E+00  0.1000000000E+01  0.2570463033E+00  0.2707087058E+01 -0.9061328552E-17 -0.9509833713E+00  0.4555429096E+15  0.2699931804E+01 -0.9046624280E-17 -0.1128389488E+01
  0.1200000000E+01  0.1000000000E+01  0.3530110648E+00  0.6953067825E+01  0.2073690531E-16 -0.2841269617E+01  0.4555429096E+15  0.7015809472E+01  0.2069322685E-16 -0.2923340920E+01
  0.1153011065E+01  0.1000000000E+01  0.3530110648E+00  0.6210823152E+01  0.2986655517E-17 -0.2825497330E+01  0.4555429096E+15  0.6293891726E+01  0.1868437438E-17 -0.2922342421E+01
  0.1057046303E+01  0.1000000000E+01  0.3530110648E+00  0.5408331206E+01 -0.1374285809E-16 -0.2551187269E+01  0.4555429096E+15  0.5490479049E+01 -0.1194362936E-16 -0.2683926181E+01
  0.9429536967E+00  0.1000000000E+01  0.3530110648E+00  0.4299468658E+01 -0.2006616967E-16 -0.2415273304E+01  0.4555429096E+15  0.4363143748E+01 -0.2062846519E-16 -0.2592189045E+01
  0.8469889352E+00  0.1000000000E+01  0.3530110648E+00  0.3671169467E+01  0.1954915343E-17 -0.1817467185E+01  0.4555429096E+15  0.3707558995E+01  0.4890861084E-17 -0.2038858968E+01
  0.8000000000E+00  0.1000000000E+01  0.3530110648E+00  0.3132000167E+01  0.3454302891E-17 -0.1632741344E+01  0.4555429096E+15  0.3135877915E+01  0.3531452285E-17 -0.1871208055E+01
  0.1200000000E+01  0.1000000000E+01  0.4000000000E+00  0.6807224718E+01  0.2168103150E-16 -0.3188335219E+01  0.4555429096E+15  0.6879576105E+01  0.2160498325E-16 -0.3258377375E+01
  0.1153011065E+01  0.1000000000E+01  0.4000000000E+00  0.6421953001E+01  0.1672679048E-16 -0.3376261190E+01  0.4555429096E+15  0.6519828945E+01  0.1921523843E-16 -0.3458742184E+01
  0.1057046303E+01  0.1000000000E+01  0.4000000000E+00  0.5473363977E+01 -0.3731589583E-17 -0.2998896439E+01  0.4555429096E+15  0.5573691276E+01 -0.2754250777E-17 -0.3113430047E+01
  0.9429536967E+00  0.1000000000E+01  0.4000000000E+00  0.4473005008E+01 -0.2014532326E-16 -0.2853006835E+01  0.4555429096E+15  0.4557818969E+01 -0.2259981444E-16 -0.3017245770E+01
  0.8469889352E+00  0.1000000000E+01  0.4000000000E+00  0.3715235498E+01 -0.9157046479E-17 -0.2209466484E+01  0.4555429096E+15  0.3774318814E+01 -0.8290893317E-17 -0.2419979802E+01
  0.8000000000E+00  0.1000000000E+01  0.4000000000E+00  0.3359862555E+01 -0.4619400703E-17 -0.2072173863E+01  0.4555429096E+15  0.3381190077E+01 -0.4658349226E-17 -0.2306620991E+01
ZONE I=6, J=6, K=1, F=POINT
  0.1600000000E+01  0.1000000000E+01  0.0000000000E+00  0.1793194018E+00 -0.9338685891E-18 -0.7330072357E-01  0.4555429096E+15  0.1555999100E+00 -0.1012532928E-17 -0.7324771827E-01
  0.1553011065E+01  0.1000000000E+01  0.0000000000E+00  0.5836406149E-01 -0.3641540661E-17  0.4486524500E-01  0.4555429096E+15  0.3450234974E-01 -0.2552624278E-17  0.4471734129E-01
  0.1457046303E+01  0.1000000000E+01  0.0000000000E+00  0.3859169198E-01 -0.1165892953E-17 -0.3353653204E-02  0.4555429096E+15  0.1295206094E-01 -0.5606524883E-18 -0.3583875107E-02
  0.1342953697E+01  0.1000000000E+01  0.0000000000E+00  0.4930542366E-01  0.2849657141E-17  0.2944165703E-01  0.4555429096E+15  0.2170949399E-01  0.1328569305E-17  0.2915581363E-01
  0.1246988935E+01  0.1000000000E+01  0.0000000000E+00  0.3506432676E-01  0.3017345974E-18 -0.8465289108E-02  0.4555429096E+15  0.5791484796E-02  0.1096244594E-18 -0.8607192305E-02
  0.1200000000E+01  0.1000000000E+01  0.0000000000E+00  0.9998582407E-01  0.8919147247E-19  0.3626673740E-01  0.4555429096E+15  0.6959575915E-01  0.8830722167E-19  0.3626788921E-01
  0.1600000000E+01  0.1000000000E+01  0.4698893521E-01  0.3078301992E+01 -0.9049046837E-16  0.3124845430E+00  0.4555429096E+15  0.3099661701E+01 -0.9097108794E-16  0.2286421346E+00
  0.1553011065E+01  0.1000000000E+01  0.4698893521E-01  0.3610062020E+01 -0.4217027025E-16 -0.1838578556E+00  0.4555429096E+15  0.3627848024E+01 -0.4158932609E-16 -0.2635503621E+00
  0.1457046303E+01  0.1000000000E+01  0.4698893521E-01  0.2715965178E+01 -0.8073861973E-17  0.1574524698E-01  0.4555429096E+15  0.2726810839E+01 -0.8463852239E-17 -0.4835177674E-01
  0.1342953697E+01  0.1000000000E+01  0.4698893521E-01  0.2776839520E+01  0.2844033060E-16  0.2745413859E-01  0.4555429096E+15  0.2780207241E+01  0.2844056904E-16 -0.2788595755E-01
  0.1246988935E+01  0.1000000000E+01  0.4698893521E-01  0.2209968738E+01 -0.3854507783E-17  0.5086333523E-01  0.4555429096E+15  0.2207119826E+01 -0.3993903597E-17 -0.2113225546E-02
  0.1200000000E+01  0.1000000000E+01  0.4698893521E-01  0.2583194441E+01 -0.5141214616E-16 -0.1297989067E+00  0.4555429096E+15  0.2576853939E+01 -0.5107717057E-16 -0.1845060694E+00
  0.1600000000E+01  0.1000000000E+01  0.1429536967E+00  0.6570486448E+01 -0.2671276982E-15 -0.1507295566E+01  0.4555429096E+15  0.6586414664E+01 -0.2655503046E-15 -0.1568897973E+01
  0.1553011065E+01  0.1000000000E+01  0.1429536967E+00  0.8322843050E+01 -0.1500891202E-15 -0.6718405568E+00  0.4555429096E+15  0.8332187622E+01 -0.1500540876E-15 -0.7373362194E+00
  0.1457046303E+01  0.1000000000E+01  0.1429536967E+00  0.6435132287E+01  0.3163677294E-16 -0.6866183942E+00  0.4555429096E+15  0.6435823889E+01  0.3142574389E-16 -0.7491667534E+00
  0.1342953697E+01  0.1000000000E+01  0.1429536967E+00  0.6514919050E+01  0.9992253864E-16 -0.3967415145E-01  0.4555429096E+15  0.6515458364E+01  0.9991189320E-16 -0.9760875031E-01
  0.1246988935E+01  0.1000000000E+01  0.1429536967E+00  0.5162473517E+01  0.1570224012E-16 -0.6346126306E+00  0.4555429096E+15  0.5164329547E+01  0.1609876331E-16 -0.6941292212E+00
  0.1200000000E+01  0.1000000000E+01  0.1429536967E+00  0.5892939332E+01 -0.6686962542E-16 -0.5080855599E+00  0.4555429096E+15  0.5896646981E+01 -0.6694584928E-16 -0.5750325270E+00
  0.1600000000E+01  0.1000000000E+01  0.2570463033E+00  0.1175322259E+02  0.9454244263E-16 -0.3147697992E+01  0.4555429096E+15  0.1181525720E+02  0.9464413966E-16 -0.3172259277E+01
  0.1553011065E+01  0.1000000000E+01  0.2570463033E+00  0.1077210671E+02  0.1181675901E-15 -0.2064629986E+01  0.4555429096E+15  0.1080033616E+02  0.1176902837E-15 -0.2093316493E+01
  0.1457046303E+01  0.1000000000E+01  0.2570463033E+00  0.9596650539E+01  0.1778042768E-15 -0.2008120846E+01  0.4555429096E+15  0.9600996955E+01  0.1779678637E-15 -0.2051408942E+01
  0.1342953697E+01  0.1000000000E+01  0.2570463033E+00  0.8081140564E+01  0.1270478148E-15 -0.1017431137E+01  0.4555429096E+15  0.8083720773E+01  0.1271914372E-15 -0.1065200028E+01
  0.1246988935E+01  0.1000000000E+01  0.2570463033E+00  0.6838417538E+01  0.4084070813E-16 -0.1864787793E+01  0.4555429096E+15  0.6853894797E+01  0.4084581023E-16 -0.1918676447E+01
  0.1200000000E+01  0.1000000000E+01  0.2570463033E+00  0.6407725224E+01 -0.1202804620E-16 -0.1652582637E+01  0.4555429096E+15  0.6443529786E+01 -0.1213745876E-16 -0.1718891458E+01
  0.1600000000E+01  0.1000000000E+01  0.3530110648E+00  0.1045466878E+02  0.1946576805E-15 -0.3462599769E+01  0.4555429096E+15  0.1052188444E+02  0.1944262771E-15 -0.3496143901E+01
  0.1553011065E+01  0.1000000000E+01  0.3530110648E+00  0.1074323400E+02  0.1951155304E-15 -0.3391359454E+01  0.4555429096E+15  0.1078564120E+02  0.1953566595E-15 -0.3431552857E+01
  0.1457046303E+01  0.1000000000E+01  0.3530110648E+00  0.9737287367E+01  0.1815909492E-15 -0.3071880901E+01  0.4555429096E+15  0.9750862312E+01  0.1830079974E-15 -0.3120258432E+01
  0.1342953697E+01  0.1000000000E+01  0.3530110648E+00  0.8571391755E+01  0.1317502383E-15 -0.2490614705E+01  0.4555429096E+15  0.8579226120E+01  0.1325227667E-15 -0.2549328129E+01
  0.1246988935E+01  0.1000000000E+01  0.3530110648E+00  0.7153449848E+01  0.4484949088E-16 -0.2841459568E+01  0.4555429096E+15  0.7185097561E+01  0.4467901811E-16 -0.2912797498E+01
  0.1200000000E+01  0.1000000000E+01  0.3530110648E+00  0.7032521082E+01  0.2088284418E-16 -0.2841403167E+01  0.4555429096E+15  0.7090622429E+01  0.2077647759E-16 -0.2923305116E+01
  0.1600000000E+01  0.1000000000E+01  0.4000000000E+00  0.1072295736E+02  0.1940944980E-15 -0.4026963419E+01  0.4555429096E+15  0.1080622800E+02  0.1938915580E-15 -0.4036864071E+01
  0.1553011065E+01  0.1000000000E+01  0.4000000000E+00  0.1016654137E+02  0.2016684766E-15 -0.3290526879E+01  0.4555429096E+15  0.1021495945E+02  0.2003012261E-15 -0.3306016465E+01
  0.1457046303E+01  0.1000000000E+01  0.4000000000E+00  0.9751609382E+01  0.1663473321E-15 -0.3542879909E+01  0.4555429096E+15  0.9767961060E+01  0.1659052990E-15 -0.3561785534E+01
  0.1342953697E+01  0.1000000000E+01  0.4000000000E+00  0.8447557727E+01  0.1390419608E-15 -0.2877074509E+01  0.4555429096E+15  0.8464534066E+01  0.1390763218E-15 -0.2916313682E+01
  0.1246988935E+01  0.1000000000E+01  0.4000000000E+00  0.7397616302E+01  0.4177764267E-16 -0.3424962927E+01  0.4555429096E+15  0.7437308355E+01  0.4231632857E-16 -0.3484856396E+01
  0.1200000000E+01  0.1000000000E+01  0.4000000000E+00  0.6781522509E+01  0.2200043250E-16 -0.3175654582E+01  0.4555429096E+15  0.6855148943E+01  0.2190217453E-16 -0.3248782719E+01
ZONE I=6, J=6, K=1, F=POINT
  0.2000000000E+01  0.1000000000E+01  0.0000000000E+00  0.2406786096E+01  0.8385498936E-19  0.2123725504E+02  0.4555429096E+15  0.2434813784E+01  0.1037822351E-18  0.2215980432E+02
  0.1953011065E+01  0.1000000000E+01  0.0000000000E+00  0.1340161648E+01 -0.3835936516E-16 -0.1324953394E+00  0.4555429096E+15  0.1331883524E+01 -0.3677809840E-16 -0.1448273074E+00
  0.1857046303E+01  0.1000000000E+01  0.0000000000E+00 -0.2479580835E+00 -0.1546303801E-16  0.1512644314E+00  0.4555429096E+15 -0.2673675286E+00 -0.1709310714E-16  0.1486858750E+00
  0.1742953697E+01  0.1000000000E+01  0.0000000000E+00  0.1873649798E+00  0.3777038914E-18 -0.3652080782E-01  0.4555429096E+15  0.1668983193E+00  0.2229067423E-18 -0.3643331853E-01
  0.1646988935E+01  0.1000000000E+01  0.0000000000E+00 -0.6902185612E-01  0.1375221994E-18  0.5981983237E-01  0.4555429096E+15 -0.9430929088E-01  0.2196067772E-18  0.5878908484E-01
  0.1600000000E+01  0.1000000000E+01  0.0000000000E+00  0.1360601823E+00 -0.1021703167E-17 -0.8536151267E-01  0.4555429096E+15  0.1123939831E+00 -0.1100736731E-17 -0.8393030686E-01
  0.2000000000E+01  0.1000000000E+01  0.4698893521E-01 -0.7485067064E-02  0.7537828859E-18  0.4853235152E+02  0.4555429096E+15 -0.4965284859E-01  0.7189017001E-18  0.4869363480E+02
  0.1953011065E+01  0.1000000000E+01  0.4698893521E-01  0.1102564506E+02  0.1353490113E-15  0.1527735352E+01  0.4555429096E+15  0.1107722149E+02  0.1347978865E-15  0.1602321761E+01
  0.1857046303E+01  0.1000000000E+01  0.4698893521E-01  0.1166735431E+02  0.2904519973E-15 -0.1836885131E+01  0.4555429096E+15  0.1174034796E+02  0.2956784665E-15 -0.1804310385E+01
  0.1742953697E+01  0.1000000000E+01  0.4698893521E-01  0.5757141494E+01 -0.4543676053E-16 -0.5532597694E+00  0.4555429096E+15  0.5815663792E+01 -0.4528223679E-16 -0.5840619438E+00
  0.1646988935E+01  0.1000000000E+01  0.4698893521E-01  0.4535661920E+01 -0.1287017929E-15 -0.5395611294E+00  0.4555429096E+15  0.4582047855E+01 -0.1312381970E-15 -0.6132566035E+00
  0.1600000000E+01  0.1000000000E+01  0.4698893521E-01  0.2911989454E+01 -0.8757867724E-16  0.2982585757E+00  0.4555429096E+15  0.2942965512E+01 -0.8786197885E-16  0.2092410138E+00
  0.2000000000E+01  0.1000000000E+01  0.1429536967E+00 -0.2827484491E+00  0.2702326862E-17  0.5056632308E+02  0.4555429096E+15 -0.2596516306E+00  0.2566426178E-17  0.5048058107E+02
  0.1953011065E+01  0.1000000000E+01  0.1429536967E+00  0.2854617441E+01 -0.5033884093E-15  0.1642664916E+02  0.4555429096E+15  0.2906547048E+01 -0.4973650960E-15  0.1652124166E+02
  0.1857046303E+01  0.1000000000E+01  0.1429536967E+00  0.1269342709E+02 -0.2711469419E-15 -0.3594691902E+01  0.4555429096E+15  0.1280489712E+02 -0.2779673260E-15 -0.3542833059E+01
  0.1742953697E+01  0.1000000000E+01  0.1429536967E+00  0.9980880493E+01 -0.3509975933E-16 -0.3891471431E+01  0.4555429096E+15  0.1009733724E+02 -0.2430745553E-16 -0.3903192054E+01
  0.1646988935E+01  0.1000000000E+01  0.1429536967E+00  0.9507590057E+01 -0.1672538134E-15 -0.1785638052E+01  0.4555429096E+15  0.9588646584E+01 -0.1662721737E-15 -0.1834829040E+01
  0.1600000000E+01  0.1000000000E+01  0.1429536967E+00  0.6195942075E+01 -0.2837982362E-15 -0.1508111761E+01  0.4555429096E+15  0.6253131185E+01 -0.2824584555E-15 -0.1573672258E+01
  0.2000000000E+01  0.1000000000E+01  0.2570463033E+00  0.1984137075E-01  0.1167804952E-17  0.4993365113E+02  0.4555429096E+15  0.1812373336E-01  0.1144043159E-17  0.4991060290E+02