TITLE = "Generated from ../MESH/Convergence_0000000000.hmesh and Convergence_0000004800.hsol"
VARIABLES = "x","y","z","veloT_x","veloT_y","veloT_z","slr_4","velo_x","velo_y","velo_z"
ZONE I=6, J=6, K=1, F=POINT
  0.4000000000E+00  0.1000000000E+01  0.0000000000E+00 -0.9796450233E-02  0.2859900898E-19  0.7820029131E-02  0.6456715912E+15 -0.1086171197E-01  0.2868147247E-19  0.7554143564E-02
  0.3530110648E+00  0.1000000000E+01  0.0000000000E+00  0.1083564502E-02  0.7342591825E-20 -0.1544490797E-03  0.6456715912E+15  0.4054458270E-04  0.8599726792E-20 -0.2356314783E-03
  0.2570463033E+00  0.1000000000E+01  0.0000000000E+00  0.2052787358E-02  0.8176597892E-21  0.2354801895E-02  0.6456715912E+15  0.1345574979E-02  0.1055714472E-20  0.2388926171E-02
  0.1429536967E+00  0.1000000000E+01  0.0000000000E+00  0.9315284959E-03  0.2471635249E-21 -0.1033196808E-02  0.6456715912E+15  0.3887551784E-03  0.2311790472E-21 -0.1021007610E-02
  0.4698893521E-01  0.1000000000E+01  0.0000000000E+00  0.3229463564E-02 -0.2160192208E-20  0.1800881470E-02  0.6456715912E+15  0.2845769841E-02 -0.1991556196E-20  0.1777886775E-02
  0.0000000000E+00  0.1000000000E+01  0.0000000000E+00 -0.7331665435E-02  0.1058633959E-22  0.1921946956E-02  0.6456715912E+15 -0.7370642441E-02  0.1010631711E-22  0.1885364090E-02
  0.4000000000E+00  0.1000000000E+01  0.4698893521E-01  0.2702655542E+00  0.3035597811E-17 -0.5158597233E-01  0.6456715912E+15  0.2705256437E+00  0.3034845613E-17 -0.5228800086E-01
  0.3530110648E+00  0.1000000000E+01  0.4698893521E-01  0.1308719744E+00  0.2725927710E-17 -0.1380296512E-01  0.6456715912E+15  0.1323417805E+00  0.2712310035E-17 -0.1503336854E-01
  0.2570463033E+00  0.1000000000E+01  0.4698893521E-01  0.1021112340E+00  0.1106537518E-17 -0.2292119591E-01  0.6456715912E+15  0.1035218986E+00  0.1101395700E-17 -0.2525177920E-01
  0.1429536967E+00  0.1000000000E+01  0.4698893521E-01  0.7030314803E-02  0.3138424317E-18 -0.1469243387E-01  0.6456715912E+15  0.8491965250E-02  0.3168006023E-18 -0.1642652711E-01
  0.4698893521E-01  0.1000000000E+01  0.4698893521E-01  0.3500441794E-04  0.7284709076E-19 -0.1144182629E-01  0.6456715912E+15  0.1616443257E-02  0.7495478540E-19 -0.1274663291E-01
  0.0000000000E+00  0.1000000000E+01  0.4698893521E-01 -0.1793392337E-01  0.9386651650E-21  0.9302910100E-03  0.6456715912E+15 -0.1790221045E-01  0.9334983219E-21  0.1384290159E-02
  0.4000000000E+00  0.1000000000E+01  0.1429536967E+00  0.6097410431E+00  0.9969310636E-17 -0.1134389846E+00  0.6456715912E+15  0.6076470890E+00  0.9939298280E-17 -0.1265092813E+00
  0.3530110648E+00  0.1000000000E+01  0.1429536967E+00  0.3463331515E+00  0.6121925871E-17 -0.1555274683E+00  0.6456715912E+15  0.3479730217E+00  0.6196465532E-17 -0.1668298576E+00
  0.2570463033E+00  0.1000000000E+01  0.1429536967E+00  0.2423255813E+00  0.2557829543E-17 -0.1026716308E+00  0.6456715912E+15  0.2431582888E+00  0.2552650440E-17 -0.1119409422E+00
  0.1429536967E+00  0.1000000000E+01  0.1429536967E+00  0.4018707177E-01  0.9797247091E-18 -0.1174236594E+00  0.6456715912E+15  0.3931447580E-01  0.9767005075E-18 -0.1229511429E+00
  0.4698893521E-01  0.1000000000E+01  0.1429536967E+00 -0.5884260457E-02  0.2644301711E-18 -0.1261530735E-01  0.6456715912E+15 -0.5664165109E-02  0.2748496149E-18 -0.1482188205E-01
  0.0000000000E+00  0.1000000000E+01  0.1429536967E+00 -0.2135311669E-01 -0.2040838409E-21 -0.2990154666E-02  0.6456715912E+15 -0.2138116276E-01 -0.1246517263E-21 -0.2424428605E-02
  0.4000000000E+00  0.1000000000E+01  0.2570463033E+00  0.7334158615E+00  0.4057679849E-17 -0.3589285134E+00  0.6456715912E+15  0.7217497897E+00  0.4051524481E-17 -0.3870673747E+00
  0.3530110648E+00  0.1000000000E+01  0.2570463033E+00  0.5478434105E+00  0.3406193508E-17 -0.4083604030E+00  0.6456715912E+15  0.5409570154E+00  0.3081498874E-17 -0.4310308370E+00
  0.2570463033E+00  0.1000000000E+01  0.2570463033E+00  0.3391003838E+00  0.2277143649E-17 -0.2942492651E+00  0.6456715912E+15  0.3326727387E+00  0.2280430972E-17 -0.3053747878E+00
  0.1429536967E+00  0.1000000000E+01  0.2570463033E+00  0.1008440158E+00  0.1665306458E-17 -0.2854499026E+00  0.6456715912E+15  0.9493366060E-01  0.1666508797E-17 -0.2877450169E+00
  0.4698893521E-01  0.1000000000E+01  0.2570463033E+00  0.9914305097E-02  0.1048259471E-17 -0.5403551556E-01  0.6456715912E+15  0.8419780725E-02  0.1039178353E-17 -0.5478117140E-01
  0.0000000000E+00  0.1000000000E+01  0.2570463033E+00 -0.1405071147E-01 -0.3082618375E-20 -0.2909651573E-02  0.6456715912E+15 -0.1408585960E-01 -0.3319521942E-20 -0.2111110657E-02
  0.4000000000E+00  0.1000000000E+01  0.3530110648E+00  0.7994616781E+00  0.4551562110E-17 -0.6449697987E+00  0.6456715912E+15  0.7761065911E+00  0.4569757449E-17 -0.6785419981E+00
  0.3530110648E+00  0.1000000000E+01  0.3530110648E+00  0.6010527054E+00  0.4061115620E-17 -0.6556800586E+00  0.6456715912E+15  0.5798596007E+00  0.4056020841E-17 -0.6819142684E+00
  0.2570463033E+00  0.1000000000E+01  0.3530110648E+00  0.3741156205E+00  0.2069501846E-17 -0.5094390798E+00  0.6456715912E+15  0.3548078284E+00  0.2227055868E-17 -0.5202919120E+00
  0.1429536967E+00  0.1000000000E+01  0.3530110648E+00  0.1141394500E+00  0.2183428588E-17 -0.4294257105E+00  0.6456715912E+15  0.1046937371E+00  0.2183218812E-17 -0.4294941168E+00
  0.4698893521E-01  0.1000000000E+01  0.3530110648E+00  0.1300598888E-01  0.7063139010E-18 -0.1185562541E+00  0.6456715912E+15  0.1327094768E-01  0.7087214741E-18 -0.1188530234E+00
  0.0000000000E+00  0.1000000000E+01  0.3530110648E+00 -0.1444193004E-01  0.5716440607E-20 -0.3243463997E-02  0.6456715912E+15 -0.1446589201E-01  0.5272101679E-20 -0.2266688034E-02
  0.4000000000E+00  0.1000000000E+01  0.4000000000E+00  0.7925582623E+00  0.6713727535E-17 -0.7981750488E+00  0.6456715912E+15  0.7622473979E+00  0.6719191194E-17 -0.8326524991E+00
  0.3530110648E+00  0.1000000000E+01  0.4000000000E+00  0.6429409485E+00  0.5747464684E-17 -0.7947328037E+00  0.6456715912E+15  0.6142953869E+00  0.5810147410E-17 -0.8217166383E+00
  0.2570463033E+00  0.1000000000E+01  0.4000000000E+00  0.3856097371E+00  0.2525553270E-17 -0.6202423003E+00  0.6456715912E+15  0.3602306801E+00  0.2472547938E-17 -0.6345155052E+00
  0.1429536967E+00  0.1000000000E+01  0.4000000000E+00  0.1288219417E+00  0.2351802362E-17 -0.5025177382E+00  0.6456715912E+15  0.1173313474E+00  0.2309043995E-17 -0.5079762088E+00
  0.4698893521E-01  0.1000000000E+01  0.4000000000E+00  0.9903556441E-02  0.6741211486E-18 -0.1464878783E+00  0.6456715912E+15  0.1050346628E-01  0.6788848585E-18 -0.1482710615E+00
  0.0000000000E+00  0.1000000000E+01  0.4000000000E+00 -0.7498682664E-02  0.7682224317E-20 -0.4133113828E-02  0.6456715912E+15 -0.7601544207E-02  0.7586158405E-20 -0.3640819397E-02
ZONE I=6, J=6, K=1, F=POINT
  0.8000000000E+00  0.1000000000E+01  0.0000000000E+00  0.1974464123E-01 -0.8554055212E-19 -0.1146880126E-01  0.6456715912E+15  0.1840949833E-01 -0.8734903601E-19 -0.1171776951E-01
  0.7530110648E+00  0.1000000000E+01  0.0000000000E+00  0.4101711973E-02  0.1213305614E-18  0.5956760615E-02  0.6456715912E+15  0.2889992925E-02  0.9852961065E-19  0.5936367877E-02
  0.6570463033E+00  0.1000000000E+01  0.0000000000E+00  0.1451118294E-02  0.4677096875E-19  0.1489665103E-03  0.6456715912E+15  0.2715464595E-03  0.3121634287E-19  0.1847569329E-03
  0.5429536967E+00  0.1000000000E+01  0.0000000000E+00  0.2472013601E-02  0.6756051283E-19  0.6979948124E-02  0.6456715912E+15  0.1479025174E-02  0.4336920323E-19  0.7023281889E-02
  0.4469889352E+00  0.1000000000E+01  0.0000000000E+00 -0.2204995751E-03  0.1187318603E-19  0.7677489056E-03  0.6456715912E+15 -0.9799248649E-03 -0.9176046365E-20  0.7327972291E-03
  0.4000000000E+00  0.1000000000E+01  0.0000000000E+00  0.1663745837E-01  0.3219540375E-19  0.7519812079E-02  0.6456715912E+15  0.1587073021E-01  0.3228277005E-19  0.7260023529E-02
  0.8000000000E+00  0.1000000000E+01  0.4698893521E-01  0.3413714678E+00 -0.2362302046E-16  0.7413577871E-02  0.6456715912E+15  0.3413515077E+00 -0.2362046783E-16  0.5884311460E-03
  0.7530110648E+00  0.1000000000E+01  0.4698893521E-01  0.5336083882E+00 -0.2323003800E-16 -0.5082626868E-01  0.6456715912E+15  0.5351262603E+00 -0.2330308906E-16 -0.5914549854E-01
  0.6570463033E+00  0.1000000000E+01  0.4698893521E-01  0.3114501140E+00 -0.4488374084E-17 -0.1823608297E-01  0.6456715912E+15  0.3123005083E+00 -0.4496543046E-17 -0.2952800533E-01
  0.5429536967E+00  0.1000000000E+01  0.4698893521E-01  0.3395788869E+00  0.4404618296E-17 -0.8969787675E-02  0.6456715912E+15  0.3383576501E+00  0.4378482491E-17 -0.1817719079E-01
  0.4469889352E+00  0.1000000000E+01  0.4698893521E-01  0.2096327252E+00  0.3967967053E-17 -0.6090809307E-02  0.6456715912E+15  0.2085482824E+00  0.3977341848E-17 -0.9079079330E-02
  0.4000000000E+00  0.1000000000E+01  0.4698893521E-01  0.3119536903E+00  0.2796679397E-17 -0.5234717823E-01  0.6456715912E+15  0.3122808262E+00  0.2794811887E-17 -0.5304030479E-01
  0.8000000000E+00  0.1000000000E+01  0.1429536967E+00  0.1092098679E+01 -0.5373657509E-16 -0.3526093367E+00  0.6456715912E+15  0.1094244258E+01 -0.5365667632E-16 -0.3799491078E+00
  0.7530110648E+00  0.1000000000E+01  0.1429536967E+00  0.1380489658E+01 -0.3392396804E-16 -0.2026497526E+00  0.6456715912E+15  0.1384637024E+01 -0.3376807593E-16 -0.2308453917E+00
  0.6570463033E+00  0.1000000000E+01  0.1429536967E+00  0.9302209124E+00 -0.3619792752E-17 -0.1904474419E+00  0.6456715912E+15  0.9307103218E+00 -0.3654075307E-17 -0.2178328587E+00
  0.5429536967E+00  0.1000000000E+01  0.1429536967E+00  0.8551363486E+00  0.9902342797E-17 -0.4628897987E-01  0.6456715912E+15  0.8479507141E+00  0.9682328867E-17 -0.6868615995E-01
  0.4469889352E+00  0.1000000000E+01  0.1429536967E+00  0.5476346771E+00  0.9581460726E-17 -0.1329563554E+00  0.6456715912E+15  0.5397019356E+00  0.9717111745E-17 -0.1489102129E+00
  0.4000000000E+00  0.1000000000E+01  0.1429536967E+00  0.6615927566E+00  0.1068706296E-16 -0.1128852790E+00  0.6456715912E+15  0.6582935993E+00  0.1064099691E-16 -0.1259601253E+00
  0.8000000000E+00  0.1000000000E+01  0.2570463033E+00  0.2134005715E+01 -0.1313600436E-16 -0.9013120993E+00  0.6456715912E+15  0.2142429278E+01 -0.1312400650E-16 -0.9373873148E+00
  0.7530110648E+00  0.1000000000E+01  0.2570463033E+00  0.1995909927E+01 -0.8611327703E-17 -0.6401330519E+00  0.6456715912E+15  0.2001259556E+01 -0.9181202702E-17 -0.6781954048E+00
  0.6570463033E+00  0.1000000000E+01  0.2570463033E+00  0.1513983067E+01 -0.3348429563E-17 -0.5641298245E+00  0.6456715912E+15  0.1512385180E+01 -0.3288666491E-17 -0.6039765663E+00
  0.5429536967E+00  0.1000000000E+01  0.2570463033E+00  0.1161291952E+01  0.3190510862E-17 -0.2986178223E+00  0.6456715912E+15  0.1148938891E+01  0.2992373135E-17 -0.3375362099E+00
  0.4469889352E+00  0.1000000000E+01  0.2570463033E+00  0.8184367705E+00  0.4454303173E-17 -0.4032957057E+00  0.6456715912E+15  0.8023215054E+00  0.4043770598E-17 -0.4361031914E+00
  0.4000000000E+00  0.1000000000E+01  0.2570463033E+00  0.7640819694E+00  0.4085121819E-17 -0.3582676720E+00  0.6456715912E+15  0.7521410098E+00  0.4077133166E-17 -0.3864558098E+00
  0.8000000000E+00  0.1000000000E+01  0.3530110648E+00  0.2384117912E+01  0.1873028774E-17 -0.1408490194E+01  0.6456715912E+15  0.2399470647E+01  0.1849019088E-17 -0.1440542476E+01
  0.7530110648E+00  0.1000000000E+01  0.3530110648E+00  0.2268564005E+01  0.5500189455E-17 -0.1179656976E+01  0.6456715912E+15  0.2280538560E+01  0.6143074943E-17 -0.1216083045E+01
  0.6570463033E+00  0.1000000000E+01  0.3530110648E+00  0.1734569550E+01 -0.8256035877E-18 -0.9809225759E+00  0.6456715912E+15  0.1737810914E+01 -0.2726887026E-18 -0.1026362580E+01
  0.5429536967E+00  0.1000000000E+01  0.3530110648E+00  0.1303695246E+01 -0.2103721584E-17 -0.6573401060E+00  0.6456715912E+15  0.1288251753E+01 -0.7220904285E-18 -0.7060407495E+00
  0.4469889352E+00  0.1000000000E+01  0.3530110648E+00  0.8807236711E+00  0.3960943971E-17 -0.6900262028E+00  0.6456715912E+15  0.8533647889E+00  0.4246185970E-17 -0.7299244694E+00
  0.4000000000E+00  0.1000000000E+01  0.3530110648E+00  0.8323223893E+00  0.4523546556E-17 -0.6447605100E+00  0.6456715912E+15  0.8084943344E+00  0.4544339139E-17 -0.6783283874E+00
  0.8000000000E+00  0.1000000000E+01  0.4000000000E+00  0.2489750751E+01 -0.3748843166E-17 -0.1717765500E+01  0.6456715912E+15  0.2509008359E+01 -0.3746043731E-17 -0.1753249706E+01
  0.7530110648E+00  0.1000000000E+01  0.4000000000E+00  0.2245848898E+01 -0.8767446506E-18 -0.1426941172E+01  0.6456715912E+15  0.2262237857E+01 -0.7043030838E-18 -0.1465382281E+01
  0.6570463033E+00  0.1000000000E+01  0.4000000000E+00  0.1756804060E+01  0.9975065077E-18 -0.1215763441E+01  0.6456715912E+15  0.1763496899E+01  0.8331517060E-18 -0.1261417954E+01
  0.5429536967E+00  0.1000000000E+01  0.4000000000E+00  0.1300759973E+01  0.7747811364E-17 -0.8957891437E+00  0.6456715912E+15  0.1283499513E+01  0.6830576020E-17 -0.9429616313E+00
  0.4469889352E+00  0.1000000000E+01  0.4000000000E+00  0.9476310994E+00  0.8043656281E-17 -0.8705572501E+00  0.6456715912E+15  0.9145586410E+00  0.7510940380E-17 -0.9100885841E+00
  0.4000000000E+00  0.1000000000E+01  0.4000000000E+00  0.8046415665E+00  0.6731666387E-17 -0.7973809332E+00  0.6456715912E+15  0.7746682014E+00  0.6737194826E-17 -0.8319225041E+00
ZONE I=6, J=6, K=1, F=POINT
  0.1200000000E+01  0.1000000000E+01  0.0000000000E+00 -0.2995669179E-01  0.5760921783E-19  0.3689056820E-01  0.6456715912E+15 -0.3124338745E-01  0.5925736791E-19  0.3712045467E-01
  0.1153011065E+01  0.1000000000E+01  0.0000000000E+00 -0.3029427721E-02 -0.1311315219E-18 -0.9571613018E-02  0.6456715912E+15 -0.4475444550E-02 -0.1962108200E-18 -0.9364217494E-02
  0.1057046303E+01  0.1000000000E+01  0.0000000000E+00  0.4528392118E-02  0.8073688173E-19  0.5923191346E-02  0.6456715912E+15  0.2814374552E-02  0.3596573723E-19  0.5961127026E-02
  0.9429536967E+00  0.1000000000E+01  0.0000000000E+00 -0.1240340691E-03  0.2984167331E-20 -0.8321615120E-02  0.6456715912E+15 -0.1825770043E-02  0.3292359867E-20 -0.8291343317E-02
  0.8469889352E+00  0.1000000000E+01  0.0000000000E+00  0.5130238299E-02 -0.2371337188E-19  0.5317317241E-02  0.6456715912E+15  0.3591166670E-02 -0.2280846923E-19  0.5329858066E-02
  0.8000000000E+00  0.1000000000E+01  0.0000000000E+00 -0.2537117872E-01 -0.9511655282E-19 -0.1094278089E-01  0.6456715912E+15 -0.2687076757E-01 -0.9715913500E-19 -0.1118723307E-01
  0.1200000000E+01  0.1000000000E+01  0.4698893521E-01  0.2222889950E+01 -0.4228809455E-16 -0.2187428261E+00  0.6456715912E+15  0.2223633736E+01 -0.4228961491E-16 -0.2301449048E+00
  0.1153011065E+01  0.1000000000E+01  0.4698893521E-01  0.1530557558E+01 -0.2639628627E-16 -0.7247642797E-01  0.6456715912E+15  0.1530249814E+01 -0.2636981278E-16 -0.8302433100E-01
  0.1057046303E+01  0.1000000000E+01  0.4698893521E-01  0.1388498313E+01 -0.1235753830E-16 -0.1046087826E+00  0.6456715912E+15  0.1387789191E+01 -0.1237964024E-16 -0.1139854755E+00
  0.9429536967E+00  0.1000000000E+01  0.4698893521E-01  0.7758784431E+00 -0.1487383155E-16 -0.8899027646E-01  0.6456715912E+15  0.7746386918E+00 -0.1484000267E-16 -0.9775892796E-01
  0.8469889352E+00  0.1000000000E+01  0.4698893521E-01  0.6705085313E+00 -0.2780478678E-16 -0.8199242356E-01  0.6456715912E+15  0.6690003269E+00 -0.2772972262E-16 -0.8932027564E-01
  0.8000000000E+00  0.1000000000E+01  0.4698893521E-01  0.2801430980E+00 -0.2292219592E-16  0.9461262045E-02  0.6456715912E+15  0.2803678014E+00 -0.2292866204E-16  0.2592746082E-02
  0.1200000000E+01  0.1000000000E+01  0.1429536967E+00  0.5146818217E+01 -0.5851331931E-16 -0.6474802573E+00  0.6456715912E+15  0.5152604321E+01 -0.5854213332E-16 -0.6616446643E+00
  0.1153011065E+01  0.1000000000E+01  0.1429536967E+00  0.3687007537E+01 -0.6762168489E-16 -0.8531779862E+00  0.6456715912E+15  0.3686565411E+01 -0.6760105192E-16 -0.8681628014E+00
  0.1057046303E+01  0.1000000000E+01  0.1429536967E+00  0.3287912690E+01 -0.3878246679E-16 -0.6328150285E+00  0.6456715912E+15  0.3288198378E+01 -0.3879799498E-16 -0.6496744441E+00
  0.9429536967E+00  0.1000000000E+01  0.1429536967E+00  0.2017849781E+01 -0.3430833694E-16 -0.7298574359E+00  0.6456715912E+15  0.2018130930E+01 -0.3431489971E-16 -0.7510145365E+00
  0.8469889352E+00  0.1000000000E+01  0.1429536967E+00  0.1726657083E+01 -0.5021865002E-16 -0.3761348232E+00  0.6456715912E+15  0.1725648764E+01 -0.5007341151E-16 -0.4013803878E+00
  0.8000000000E+00  0.1000000000E+01  0.1429536967E+00  0.1008249971E+01 -0.5595543619E-16 -0.3542324478E+00  0.6456715912E+15  0.1011739618E+01 -0.5589983064E-16 -0.3815400161E+00
  0.1200000000E+01  0.1000000000E+01  0.2570463033E+00  0.5424454747E+01 -0.6324239352E-17 -0.1760726967E+01  0.6456715912E+15  0.5431386257E+01 -0.6265101235E-17 -0.1763756158E+01
  0.1153011065E+01  0.1000000000E+01  0.2570463033E+00  0.4886248559E+01 -0.3904223897E-16 -0.2005907634E+01  0.6456715912E+15  0.4891204805E+01 -0.3958404567E-16 -0.2013106935E+01
  0.1057046303E+01  0.1000000000E+01  0.2570463033E+00  0.4035252423E+01 -0.3197685190E-16 -0.1601565097E+01  0.6456715912E+15  0.4040981516E+01 -0.3197024234E-16 -0.1614875610E+01
  0.9429536967E+00  0.1000000000E+01  0.2570463033E+00  0.3054216226E+01 -0.3005929157E-16 -0.1632185297E+01  0.6456715912E+15  0.3062606458E+01 -0.3048087643E-16 -0.1652064953E+01
  0.8469889352E+00  0.1000000000E+01  0.2570463033E+00  0.2501846695E+01 -0.1457031900E-16 -0.9844731356E+00  0.6456715912E+15  0.2511351776E+01 -0.1467635518E-16 -0.1015778743E+01
  0.8000000000E+00  0.1000000000E+01  0.2570463033E+00  0.2097052552E+01 -0.1328649890E-16 -0.9038760973E+00  0.6456715912E+15  0.2106097729E+01 -0.1326881404E-16 -0.9395653005E+00
  0.1200000000E+01  0.1000000000E+01  0.3530110648E+00  0.5711474290E+01  0.3305495420E-16 -0.2907735284E+01  0.6456715912E+15  0.5723962118E+01  0.3307961740E-16 -0.2916497980E+01
  0.1153011065E+01  0.1000000000E+01  0.3530110648E+00  0.4981365414E+01  0.1333777089E-16 -0.2829905350E+01  0.6456715912E+15  0.4993923288E+01  0.1318850625E-16 -0.2840668685E+01
  0.1057046303E+01  0.1000000000E+01  0.3530110648E+00  0.4243025832E+01 -0.7907397366E-17 -0.2447436134E+01  0.6456715912E+15  0.4252262321E+01 -0.7706068411E-17 -0.2462020116E+01
  0.9429536967E+00  0.1000000000E+01  0.3530110648E+00  0.3283570042E+01 -0.1407063662E-16 -0.2229296454E+01  0.6456715912E+15  0.3299606653E+01 -0.1443356395E-16 -0.2247051161E+01
  0.8469889352E+00  0.1000000000E+01  0.3530110648E+00  0.2808788982E+01 -0.2232401130E-17 -0.1604618226E+01  0.6456715912E+15  0.2831096581E+01 -0.1365778101E-17 -0.1631990990E+01
  0.8000000000E+00  0.1000000000E+01  0.3530110648E+00  0.2337687520E+01  0.1934189608E-17 -0.1408797887E+01  0.6456715912E+15  0.2353280324E+01  0.1914511341E-17 -0.1440869016E+01
  0.1200000000E+01  0.1000000000E+01  0.4000000000E+00  0.5422630376E+01  0.3915072615E-16 -0.3219879927E+01  0.6456715912E+15  0.5434780418E+01  0.3915267824E-16 -0.3240849742E+01
  0.1153011065E+01  0.1000000000E+01  0.4000000000E+00  0.5054481479E+01  0.2985765009E-16 -0.3328546654E+01  0.6456715912E+15  0.5067991722E+01  0.3013600280E-16 -0.3350459566E+01
  0.1057046303E+01  0.1000000000E+01  0.4000000000E+00  0.4181978378E+01  0.4034681611E-17 -0.2822182950E+01  0.6456715912E+15  0.4192077589E+01  0.4006703641E-17 -0.2844449319E+01
  0.9429536967E+00  0.1000000000E+01  0.4000000000E+00  0.3346346742E+01 -0.1257729292E-16 -0.2579046529E+01  0.6456715912E+15  0.3364417912E+01 -0.1319643656E-16 -0.2604211706E+01
  0.8469889352E+00  0.1000000000E+01  0.4000000000E+00  0.2760359368E+01 -0.8674148671E-17 -0.1878669473E+01  0.6456715912E+15  0.2787808755E+01 -0.8324891473E-17 -0.1909525215E+01
  0.8000000000E+00  0.1000000000E+01  0.4000000000E+00  0.2485732659E+01 -0.3724767658E-17 -0.1721142588E+01  0.6456715912E+15  0.2505071559E+01 -0.3724579719E-17 -0.1756191377E+01
ZONE I=6, J=6, K=1, F=POINT
  0.1600000000E+01  0.1000000000E+01  0.0000000000E+00  0.1314488671E+00 -0.9236445971E-18 -0.7234467083E-01  0.6456715912E+15  0.1298286135E+00 -0.1037643755E-17 -0.7206334720E-01
  0.1553011065E+01  0.1000000000E+01  0.0000000000E+00  0.1155865934E-01 -0.1371275095E-17  0.4518937313E-01  0.6456715912E+15  0.9998608136E-02 -0.1325379982E-17  0.4501167866E-01
  0.1457046303E+01  0.1000000000E+01  0.0000000000E+00 -0.5982440521E-02 -0.1225418238E-18 -0.3115142304E-02  0.6456715912E+15 -0.7617791752E-02 -0.9788812885E-19 -0.3101968109E-02
  0.1342953697E+01  0.1000000000E+01  0.0000000000E+00  0.6826512923E-02  0.4872727084E-18  0.2981402495E-01  0.6456715912E+15  0.5268835770E-02  0.4018321103E-18  0.2970521304E-01
  0.1246988935E+01  0.1000000000E+01  0.0000000000E+00 -0.5794496509E-02  0.1373517825E-18 -0.8227817206E-02  0.6456715912E+15 -0.7662059507E-02  0.1243297739E-18 -0.8046087819E-02
  0.1200000000E+01  0.1000000000E+01  0.0000000000E+00  0.5965960145E-01  0.6214293882E-19  0.3692335252E-01  0.6456715912E+15  0.5792924807E-01  0.6366569633E-19  0.3714946639E-01
  0.1600000000E+01  0.1000000000E+01  0.4698893521E-01  0.3001537654E+01 -0.8799874636E-16  0.2164312098E+00  0.6456715912E+15  0.3000167265E+01 -0.8797009421E-16  0.2332952979E+00
  0.1553011065E+01  0.1000000000E+01  0.4698893521E-01  0.3500081501E+01 -0.4352477519E-16 -0.2854081806E+00  0.6456715912E+15  0.3501947774E+01 -0.4348505365E-16 -0.2729455417E+00
  0.1457046303E+01  0.1000000000E+01  0.4698893521E-01  0.2534948905E+01 -0.4497308730E-17 -0.9636839559E-01  0.6456715912E+15  0.2536916405E+01 -0.4545043315E-17 -0.9471056123E-01
  0.1342953697E+01  0.1000000000E+01  0.4698893521E-01  0.2534997473E+01  0.2866226832E-16 -0.7357337599E-01  0.6456715912E+15  0.2535607688E+01  0.2866396527E-16 -0.7873081192E-01
  0.1246988935E+01  0.1000000000E+01  0.4698893521E-01  0.1957294725E+01 -0.6860053373E-17 -0.4447801036E-01  0.6456715912E+15  0.1957465213E+01 -0.6842806306E-17 -0.5416064818E-01
  0.1200000000E+01  0.1000000000E+01  0.4698893521E-01  0.2321530612E+01 -0.4651495527E-16 -0.2244308101E+00  0.6456715912E+15  0.2319698810E+01 -0.4646378774E-16 -0.2354472967E+00
  0.1600000000E+01  0.1000000000E+01  0.1429536967E+00  0.6368018357E+01 -0.2658438226E-15 -0.1799967239E+01  0.6456715912E+15  0.6358536268E+01 -0.2654529755E-15 -0.1787670698E+01
  0.1553011065E+01  0.1000000000E+01  0.1429536967E+00  0.8062897931E+01 -0.1416518263E-15 -0.9641090590E+00  0.6456715912E+15  0.8076734045E+01 -0.1423225148E-15 -0.9560483146E+00
  0.1457046303E+01  0.1000000000E+01  0.1429536967E+00  0.6014397500E+01  0.3246443853E-16 -0.9473496376E+00  0.6456715912E+15  0.6026662686E+01  0.3304208150E-16 -0.9488955887E+00
  0.1342953697E+01  0.1000000000E+01  0.1429536967E+00  0.5973332213E+01  0.1009590493E-15 -0.2318695031E+00  0.6456715912E+15  0.5979001858E+01  0.1011792652E-15 -0.2403916938E+00
  0.1246988935E+01  0.1000000000E+01  0.1429536967E+00  0.4599015986E+01  0.2618210691E-16 -0.7776748443E+00  0.6456715912E+15  0.4605113987E+01  0.2594334725E-16 -0.7896752908E+00
  0.1200000000E+01  0.1000000000E+01  0.1429536967E+00  0.5313481263E+01 -0.6267724356E-16 -0.6420504381E+00  0.6456715912E+15  0.5308851469E+01 -0.6259844019E-16 -0.6569057968E+00
  0.1600000000E+01  0.1000000000E+01  0.2570463033E+00  0.1128956906E+02  0.1043163844E-15 -0.3625087980E+01  0.6456715912E+15  0.1130800464E+02  0.1042976740E-15 -0.3636746943E+01
  0.1553011065E+01  0.1000000000E+01  0.2570463033E+00  0.1020745859E+02  0.1276440221E-15 -0.2543191480E+01  0.6456715912E+15  0.1022964770E+02  0.1274739055E-15 -0.2550047239E+01
  0.1457046303E+01  0.1000000000E+01  0.2570463033E+00  0.8832619808E+01  0.1872223267E-15 -0.2419918612E+01  0.6456715912E+15  0.8849666884E+01  0.1880953613E-15 -0.2427076294E+01
  0.1342953697E+01  0.1000000000E+01  0.2570463033E+00  0.7178316595E+01  0.1340255348E-15 -0.1268819585E+01  0.6456715912E+15  0.7186695825E+01  0.1344863025E-15 -0.1274920184E+01
  0.1246988935E+01  0.1000000000E+01  0.2570463033E+00  0.5904826835E+01  0.4306662959E-16 -0.1995133080E+01  0.6456715912E+15  0.5912057821E+01  0.4338737238E-16 -0.1997557896E+01
  0.1200000000E+01  0.1000000000E+01  0.2570463033E+00  0.5465166973E+01 -0.6604640804E-17 -0.1751245223E+01  0.6456715912E+15  0.5471328425E+01 -0.6545783464E-17 -0.1756987141E+01
  0.1600000000E+01  0.1000000000E+01  0.3530110648E+00  0.9760841268E+01  0.2069887413E-15 -0.4154178597E+01  0.6456715912E+15  0.9768899385E+01  0.2068755449E-15 -0.4165952739E+01
  0.1553011065E+01  0.1000000000E+01  0.3530110648E+00  0.9933013236E+01  0.2118447814E-15 -0.4082854966E+01  0.6456715912E+15  0.9953323541E+01  0.2119531608E-15 -0.4094924093E+01
  0.1457046303E+01  0.1000000000E+01  0.3530110648E+00  0.8688662949E+01  0.2015523101E-15 -0.3656430248E+01  0.6456715912E+15  0.8705327202E+01  0.2026311560E-15 -0.3667790053E+01
  0.1342953697E+01  0.1000000000E+01  0.3530110648E+00  0.7362091862E+01  0.1518109437E-15 -0.2822660666E+01  0.6456715912E+15  0.7367070493E+01  0.1520481645E-15 -0.2831576737E+01
  0.1246988935E+01  0.1000000000E+01  0.3530110648E+00  0.5916346024E+01  0.6472391784E-16 -0.2973582689E+01  0.6456715912E+15  0.5922919624E+01  0.6469584054E-16 -0.2980763132E+01
  0.1200000000E+01  0.1000000000E+01  0.3530110648E+00  0.5789829943E+01  0.3317624396E-16 -0.2908146471E+01  0.6456715912E+15  0.5798453920E+01  0.3316351068E-16 -0.2916605401E+01
  0.1600000000E+01  0.1000000000E+01  0.4000000000E+00  0.9929593500E+01  0.2089638986E-15 -0.4907910086E+01  0.6456715912E+15  0.9942269784E+01  0.2088526153E-15 -0.4927564649E+01
  0.1553011065E+01  0.1000000000E+01  0.4000000000E+00  0.9242858145E+01  0.2243266511E-15 -0.4150624138E+01  0.6456715912E+15  0.9264847554E+01  0.2239767704E-15 -0.4167788435E+01
  0.1457046303E+01  0.1000000000E+01  0.4000000000E+00  0.8567711155E+01  0.1946708839E-15 -0.4233866219E+01  0.6456715912E+15  0.8582706561E+01  0.1944605253E-15 -0.4247969039E+01
  0.1342953697E+01  0.1000000000E+01  0.4000000000E+00  0.7092969270E+01  0.1606355778E-15 -0.3253454263E+01  0.6456715912E+15  0.7099489270E+01  0.1607274071E-15 -0.3270027077E+01
  0.1246988935E+01  0.1000000000E+01  0.4000000000E+00  0.6015467526E+01  0.6564608477E-16 -0.3550970531E+01  0.6456715912E+15  0.6022193069E+01  0.6577497645E-16 -0.3570826019E+01
  0.1200000000E+01  0.1000000000E+01  0.4000000000E+00  0.5397265113E+01  0.3941894656E-16 -0.3207887172E+01  0.6456715912E+15  0.5410771768E+01  0.3940453055E-16 -0.3231507855E+01
ZONE I=6, J=6, K=1, F=POINT
  0.2000000000E+01  0.1000000000E+01  0.0000000000E+00  0.2402201980E+01  0.7372591087E-19  0.2123399748E+02  0.6456715911E+15  0.2429860317E+01  0.9421227127E-19  0.2215503160E+02
  0.1953011065E+01  0.1000000000E+01  0.0000000000E+00  0.1292661269E+01 -0.3735079498E-16 -0.1374123687E+00  0.6456715912E+15  0.1295082653E+01 -0.3606488428E-16 -0.1507726538E+00
  0.1857046303E+01  0.1000000000E+01  0.0000000000E+00 -0.3057466461E+00 -0.1875300033E-16  0.1518965358E+00  0.6456715912E+15 -0.3082248272E+00 -0.1935148161E-16  0.1504153261E+00
  0.1742953697E+01  0.1000000000E+01  0.0000000000E+00  0.1350769633E+00  0.2234635070E-18 -0.3720795441E-01  0.6456715912E+15  0.1342500018E+00  0.1049450011E-18 -0.3690728541E-01
  0.1646988935E+01  0.1000000000E+01  0.0000000000E+00 -0.1262444968E+00  0.3160587300E-18  0.6032168581E-01  0.6456715912E+15 -0.1275508083E+00  0.2888564435E-18  0.5951845243E-01
  0.1600000000E+01  0.1000000000E+01  0.0000000000E+00  0.8952144032E-01 -0.1002863345E-17 -0.8445037773E-01  0.6456715912E+15  0.8754876557E-01 -0.1118431092E-17 -0.8278242237E-01
  0.2000000000E+01  0.1000000000E+01  0.4698893521E-01 -0.1231231205E-01  0.7486088516E-18  0.4848356407E+02  0.6456715912E+15 -0.5527358748E-01  0.6874066976E-18  0.4865679596E+02
  0.1953011065E+01  0.1000000000E+01  0.4698893521E-01  0.1096071630E+02  0.1360293107E-15  0.1465489796E+01  0.6456715912E+15  0.1094591787E+02  0.1347966493E-15  0.1480739553E+01
  0.1857046303E+01  0.1000000000E+01  0.4698893521E-01  0.1163440887E+02  0.2885353434E-15 -0.1894175846E+01  0.6456715912E+15  0.1163241440E+02  0.2885416138E-15 -0.1889868243E+01
  0.1742953697E+01  0.1000000000E+01  0.4698893521E-01  0.5748917739E+01 -0.4076285727E-16 -0.6547363306E+00  0.6456715912E+15  0.5748463103E+01 -0.4039687535E-16 -0.6465765519E+00
  0.1646988935E+01  0.1000000000E+01  0.4698893521E-01  0.4462816346E+01 -0.1218348660E-15 -0.6405205235E+00  0.6456715912E+15  0.4458635931E+01 -0.1218264972E-15 -0.6219578617E+00
  0.1600000000E+01  0.1000000000E+01  0.4698893521E-01  0.2837539994E+01 -0.8515270186E-16  0.2022796444E+00  0.6456715912E+15  0.2845683524E+01 -0.8494543181E-16  0.2138333871E+00
  0.2000000000E+01  0.1000000000E+01  0.1429536967E+00 -0.2818533805E+00  0.2722611205E-17  0.5050409058E+02  0.6456715912E+15 -0.2575515246E+00  0.2752104852E-17  0.5043912586E+02
  0.1953011065E+01  0.1000000000E+01  0.1429536967E+00  0.2791472229E+01 -0.5120523277E-15  0.1638110398E+02  0.6456715912E+15  0.2771959928E+01 -0.5124969233E-15  0.1641586277E+02
  0.1857046303E+01  0.1000000000E+01  0.1429536967E+00  0.1271384920E+02 -0.2620112336E-15 -0.3628341815E+01  0.6456715912E+15  0.1270149293E+02 -0.2614880329E-15 -0.3618336265E+01
  0.1742953697E+01  0.1000000000E+01  0.1429536967E+00  0.9987887685E+01 -0.2670557588E-16 -0.4069741036E+01  0.6456715912E+15  0.9977556427E+01 -0.2822081077E-16 -0.4060547531E+01
  0.1646988935E+01  0.1000000000E+01  0.1429536967E+00  0.9347233315E+01 -0.1597127837E-15 -0.2056477274E+01  0.6456715912E+15  0.9341607164E+01 -0.1595585367E-15 -0.2041132028E+01
  0.1600000000E+01  0.1000000000E+01  0.1429536967E+00  0.5996128389E+01 -0.2824213894E-15 -0.1800051566E+01  0.6456715912E+15  0.6027678576E+01 -0.2823617117E-15 -0.1792290324E+01
  0.2000000000E+01  0.1000000000E+01  0.2570463033E+00  0.1905196268E-01  0.1123418483E-17  0.4987323131E+02  0.6456715912E+15  0.1800444953E-01  0.1085867692E-17  0.4987679153E+02