TITLE = "Generated from ../MESH/Convergence_0000000000.hmesh and Convergence_0000008800.hsol"
VARIABLES = "x","y","z","veloT_x","veloT_y","veloT_z","slr_4","velo_x","velo_y","velo_z"
ZONE I=6, J=6, K=1, F=POINT
  0.4000000000E+00  0.1000000000E+01  0.0000000000E+00 -0.1028388482E+00  0.1986324729E-20  0.8234230622E-02  0.1566089125E+16 -0.8184055987E-01 -0.1848655924E-19  0.9199811061E-02
  0.3530110648E+00  0.1000000000E+01  0.0000000000E+00 -0.9480217587E-01  0.3191076485E-19  0.1064385081E-02  0.1566089125E+16 -0.6838142394E-01  0.2789987574E-20  0.1468206721E-02
  0.2570463033E+00  0.1000000000E+01  0.0000000000E+00 -0.7432032787E-01  0.1219524756E-19  0.4828219704E-02  0.1566089125E+16 -0.5002520483E-01 -0.1184801830E-20  0.4807066842E-02
  0.1429536967E+00  0.1000000000E+01  0.0000000000E+00 -0.6795138264E-01  0.4457994912E-20 -0.9685798187E-03  0.1566089125E+16 -0.4617261938E-01  0.1738709959E-20 -0.1890996113E-02
  0.4698893521E-01  0.1000000000E+01  0.0000000000E+00 -0.4827568253E-01 -0.4080149878E-20  0.8163490865E-02  0.1566089125E+16 -0.3469444901E-01 -0.9736540994E-20  0.9005008905E-02
  0.0000000000E+00  0.1000000000E+01  0.0000000000E+00 -0.1280571157E-01  0.6349096101E-22  0.7472272746E-02  0.1566089125E+16 -0.1327203933E-01  0.1092507561E-21  0.7523093516E-02
  0.4000000000E+00  0.1000000000E+01  0.4698893521E-01  0.1152678835E+00  0.4440411788E-17 -0.4242033287E+00  0.1566089125E+16  0.6831942801E-02  0.5051051461E-17 -0.3751898151E-01
  0.3530110648E+00  0.1000000000E+01  0.4698893521E-01 -0.3689417397E-01  0.5385800134E-17 -0.3235892977E+00  0.1566089125E+16 -0.1194957297E+00  0.5808136622E-17  0.4033493947E-01
  0.2570463033E+00  0.1000000000E+01  0.4698893521E-01 -0.4667538112E-01  0.1277804101E-17 -0.2257369261E+00  0.1566089125E+16 -0.9548962144E-01  0.1764135398E-17  0.6066526889E-01
  0.1429536967E+00  0.1000000000E+01  0.4698893521E-01 -0.1406161746E+00  0.1048362709E-19 -0.7942561736E-01  0.1566089125E+16 -0.1801959878E+00  0.2892856359E-19  0.1191835372E+00
  0.4698893521E-01  0.1000000000E+01  0.4698893521E-01 -0.1014164636E+00  0.1828833701E-19  0.3986511402E-01  0.1566089125E+16 -0.1328781227E+00 -0.8044386725E-19  0.1325947557E+00
  0.0000000000E+00  0.1000000000E+01  0.4698893521E-01 -0.2337262623E-01  0.2777123118E-20  0.5092251822E-01  0.1566089125E+16 -0.2445849926E-01  0.3317401952E-20  0.3921095007E-01
  0.4000000000E+00  0.1000000000E+01  0.1429536967E+00  0.3744258385E+00  0.6652961570E-17 -0.6854420785E+00  0.1566089125E+16  0.2970231007E+00  0.5768308358E-17 -0.2035290801E+00
  0.3530110648E+00  0.1000000000E+01  0.1429536967E+00  0.7595003502E-01  0.1044689166E-16 -0.6662179186E+00  0.1566089125E+16  0.8957899320E-01  0.7437471629E-17 -0.2185582698E+00
  0.2570463033E+00  0.1000000000E+01  0.1429536967E+00 -0.3424186391E-01  0.2946421351E-17 -0.4511566147E+00  0.1566089125E+16 -0.2556876877E-02  0.3184601778E-17 -0.9094128687E-01
  0.1429536967E+00  0.1000000000E+01  0.1429536967E+00 -0.2766723849E+00  0.1272928490E-17 -0.2446409046E+00  0.1566089125E+16 -0.1976168612E+00  0.1420798778E-17  0.6439947095E-02
  0.4698893521E-01  0.1000000000E+01  0.1429536967E+00 -0.2275996389E+00  0.1469227379E-18  0.4696615360E-01  0.1566089125E+16 -0.1209590171E+00 -0.3316340838E-18  0.1423852773E+00
  0.0000000000E+00  0.1000000000E+01  0.1429536967E+00 -0.2001468591E-01  0.8959975816E-20  0.5537926039E-01  0.1566089125E+16 -0.1880277546E-01  0.1135358142E-19  0.3610471562E-01
  0.4000000000E+00  0.1000000000E+01  0.2570463033E+00  0.4751319727E+00  0.4905521501E-17 -0.9408014434E+00  0.1566089125E+16  0.3493690613E+00  0.4821553366E-17 -0.6013454435E+00
  0.3530110648E+00  0.1000000000E+01  0.2570463033E+00  0.2080167285E+00 -0.1242251078E-17 -0.9038639730E+00  0.1566089125E+16  0.2635942082E+00  0.4132815594E-17 -0.5291419914E+00
  0.2570463033E+00  0.1000000000E+01  0.2570463033E+00 -0.6742800502E-01  0.3057828747E-17 -0.6426616520E+00  0.1566089125E+16  0.4759872744E-01  0.2965258045E-17 -0.3037583124E+00
  0.1429536967E+00  0.1000000000E+01  0.2570463033E+00 -0.4252470096E+00  0.2110331413E-17 -0.4045876586E+00  0.1566089125E+16 -0.1840025437E+00  0.2037182353E-17 -0.2057390274E+00
  0.4698893521E-01  0.1000000000E+01  0.2570463033E+00 -0.3665775466E+00  0.2036041617E-17  0.8132506918E-02  0.1566089125E+16 -0.1033089056E+00  0.2573972748E-17  0.5072793167E-01
  0.0000000000E+00  0.1000000000E+01  0.2570463033E+00 -0.1380802398E-01 -0.1752562733E-19  0.4221377264E-01  0.1566089125E+16 -0.1288886754E-01 -0.1611065835E-19  0.1673703915E-01
  0.4000000000E+00  0.1000000000E+01  0.3530110648E+00  0.3442748661E+00  0.5172658096E-17 -0.1393239873E+01  0.1566089125E+16  0.9582199487E-01  0.5234371048E-17 -0.8122259463E+00
  0.3530110648E+00  0.1000000000E+01  0.3530110648E+00  0.1741542435E+00  0.4165420822E-17 -0.1259984475E+01  0.1566089125E+16  0.2246115972E+00  0.4376767511E-17 -0.7006857761E+00
  0.2570463033E+00  0.1000000000E+01  0.3530110648E+00 -0.1304949911E+00  0.6197703004E-17 -0.9167350025E+00  0.1566089125E+16  0.9635720130E-01 -0.1133049771E-18 -0.4781119571E+00
  0.1429536967E+00  0.1000000000E+01  0.3530110648E+00 -0.5925430087E+00  0.2759089001E-17 -0.5558031301E+00  0.1566089125E+16 -0.1667567232E+00  0.9326127887E-18 -0.3397932557E+00
  0.4698893521E-01  0.1000000000E+01  0.3530110648E+00 -0.4684165776E+00 -0.1249756269E-18 -0.4127684846E-01  0.1566089125E+16 -0.6892551725E-01 -0.2393495347E-18 -0.2657959441E-01
  0.0000000000E+00  0.1000000000E+01  0.3530110648E+00 -0.1349052917E-01 -0.2111164476E-20  0.3893934923E-01  0.1566089125E+16 -0.1209693564E-01  0.8879323427E-20  0.2491803860E-02
  0.4000000000E+00  0.1000000000E+01  0.4000000000E+00  0.2586289345E+00  0.5513776182E-17 -0.1692576927E+01  0.1566089125E+16  0.1114280687E+00  0.5222076035E-17 -0.8147352304E+00
  0.3530110648E+00  0.1000000000E+01  0.4000000000E+00  0.1616416325E+00  0.6655273493E-17 -0.1538396174E+01  0.1566089125E+16  0.3060807209E+00  0.5237273395E-17 -0.8591036393E+00
  0.2570463033E+00  0.1000000000E+01  0.4000000000E+00 -0.1825286683E+00 -0.3417075983E-18 -0.1105566505E+01  0.1566089125E+16  0.1307553378E+00  0.1659776138E-17 -0.6756596797E+00
  0.1429536967E+00  0.1000000000E+01  0.4000000000E+00 -0.6710175179E+00  0.1355410697E-17 -0.6673221522E+00  0.1566089125E+16 -0.1375238073E+00  0.3120075555E-17 -0.4769846663E+00
  0.4698893521E-01  0.1000000000E+01  0.4000000000E+00 -0.5259898988E+00  0.2119254945E-18 -0.9303697455E-01  0.1566089125E+16 -0.4940650554E-01  0.3396539017E-18 -0.1107064545E+00
  0.0000000000E+00  0.1000000000E+01  0.4000000000E+00 -0.5633817815E-02  0.1972114442E-19  0.2496460667E-01  0.1566089125E+16 -0.3773977701E-02  0.1753232883E-19 -0.1438025078E-01
ZONE I=6, J=6, K=1, F=POINT
  0.8000000000E+00  0.1000000000E+01  0.0000000000E+00 -0.1531640649E+00 -0.8937451595E-19 -0.1040268699E-01  0.1566089125E+16 -0.1363161441E+00 -0.1850609076E-18 -0.9072425325E-02
  0.7530110648E+00  0.1000000000E+01  0.0000000000E+00 -0.1646525291E+00 -0.3623446334E-17  0.8235515445E-02  0.1566089125E+16 -0.1424563152E+00 -0.3331693860E-17  0.9360483068E-02
  0.6570463033E+00  0.1000000000E+01  0.0000000000E+00 -0.1513620904E+00 -0.1968497192E-17  0.4216527023E-02  0.1566089125E+16 -0.1239529366E+00 -0.1561826215E-17  0.5079555702E-02
  0.5429536967E+00  0.1000000000E+01  0.0000000000E+00 -0.1226273754E+00 -0.3213054346E-17  0.1198359630E-01  0.1566089125E+16 -0.9848265234E-01 -0.2552828422E-17  0.1256155838E-01
  0.4469889352E+00  0.1000000000E+01  0.0000000000E+00 -0.1025133959E+00 -0.3121179970E-17  0.4644608199E-02  0.1566089125E+16 -0.8244126350E-01 -0.2516185955E-17  0.5444528330E-02
  0.4000000000E+00  0.1000000000E+01  0.0000000000E+00 -0.7737464045E-01  0.7432593859E-20  0.7913312468E-02  0.1566089125E+16 -0.5607825884E-01 -0.1349476779E-19  0.8888096684E-02
  0.8000000000E+00  0.1000000000E+01  0.4698893521E-01  0.2736174414E+00 -0.2070434273E-16 -0.5457608265E+00  0.1566089125E+16 -0.1401215914E-01 -0.1712236635E-16 -0.1577719327E+00
  0.7530110648E+00  0.1000000000E+01  0.4698893521E-01  0.4443210276E+00 -0.9690698448E-17 -0.6111995275E+00  0.1566089125E+16  0.1955413493E+00  0.3836573506E-17 -0.2109826312E+00
  0.6570463033E+00  0.1000000000E+01  0.4698893521E-01  0.1997817800E+00 -0.6897595110E-17 -0.5903631269E+00  0.1566089125E+16  0.4573802762E-02 -0.8626880244E-17 -0.2081295966E+00
  0.5429536967E+00  0.1000000000E+01  0.4698893521E-01  0.2039048299E+00  0.1486613842E-17 -0.5612631523E+00  0.1566089125E+16  0.3840093877E-01 -0.1099524117E-17 -0.1906397116E+00
  0.4469889352E+00  0.1000000000E+01  0.4698893521E-01  0.5287215114E-01  0.5969481476E-17 -0.4508607131E+00  0.1566089125E+16 -0.8454424896E-01  0.6465889418E-17 -0.6484424603E-01
  0.4000000000E+00  0.1000000000E+01  0.4698893521E-01  0.1577180723E+00  0.4205477328E-17 -0.4250366613E+00  0.1566089125E+16  0.4887780790E-01  0.4839939439E-17 -0.3828447573E-01
  0.8000000000E+00  0.1000000000E+01  0.1429536967E+00  0.1322119389E+01 -0.5569072055E-16 -0.1114643838E+01  0.1566089125E+16  0.9570232164E+00 -0.6539018986E-16 -0.7451236755E+00
  0.7530110648E+00  0.1000000000E+01  0.1429536967E+00  0.1533084244E+01 -0.2527165002E-16 -0.9787642796E+00  0.1566089125E+16  0.1246801907E+01 -0.2597671641E-16 -0.5747569537E+00
  0.6570463033E+00  0.1000000000E+01  0.1429536967E+00  0.9664745456E+00  0.7258177684E-17 -0.9318960708E+00  0.1566089125E+16  0.7615321481E+00  0.1578280203E-16 -0.4845328213E+00
  0.5429536967E+00  0.1000000000E+01  0.1429536967E+00  0.7745943947E+00  0.3907873595E-17 -0.7025898006E+00  0.1566089125E+16  0.5936823204E+00 -0.9473570117E-18 -0.2289601155E+00
  0.4469889352E+00  0.1000000000E+01  0.1429536967E+00  0.3588093019E+00  0.1552242584E-16 -0.7388982298E+00  0.1566089125E+16  0.2227123330E+00  0.1404385919E-16 -0.2505905782E+00
  0.4000000000E+00  0.1000000000E+01  0.1429536967E+00  0.4261572422E+00  0.7350051146E-17 -0.6850802559E+00  0.1566089125E+16  0.3494927542E+00  0.6391760328E-17 -0.2030766593E+00
  0.8000000000E+00  0.1000000000E+01  0.2570463033E+00  0.2681861207E+01 -0.1022153356E-16 -0.1781377562E+01  0.1566089125E+16  0.2244924212E+01 -0.1144096081E-16 -0.1453127678E+01
  0.7530110648E+00  0.1000000000E+01  0.2570463033E+00  0.2392286005E+01 -0.1451945785E-16 -0.1524406465E+01  0.1566089125E+16  0.2066337063E+01 -0.8091459536E-17 -0.1187415976E+01
  0.6570463033E+00  0.1000000000E+01  0.2570463033E+00  0.1690111031E+01  0.6637890367E-17 -0.1449694006E+01  0.1566089125E+16  0.1525493431E+01  0.1107414001E-16 -0.1197230496E+01
  0.5429536967E+00  0.1000000000E+01  0.2570463033E+00  0.1156460636E+01  0.9316623835E-19 -0.1152722645E+01  0.1566089125E+16  0.9560495145E+00 -0.3240237303E-17 -0.1004454725E+01
  0.4469889352E+00  0.1000000000E+01  0.2570463033E+00  0.6580230507E+00 -0.9100637091E-18 -0.1092898095E+01  0.1566089125E+16  0.4195126468E+00  0.2636515070E-17 -0.8370066206E+00
  0.4000000000E+00  0.1000000000E+01  0.2570463033E+00  0.5058157585E+00  0.4894740854E-17 -0.9401956657E+00  0.1566089125E+16  0.3812895162E+00  0.4780453696E-17 -0.6007722784E+00
  0.8000000000E+00  0.1000000000E+01  0.3530110648E+00  0.3181415218E+01  0.1347441320E-17 -0.2664016893E+01  0.1566089125E+16  0.2671068641E+01  0.1477491515E-17 -0.1946886630E+01
  0.7530110648E+00  0.1000000000E+01  0.3530110648E+00  0.2857492196E+01 -0.7145084167E-17 -0.2446797550E+01  0.1566089125E+16  0.2551128564E+01 -0.2371962322E-16 -0.1684496128E+01
  0.6570463033E+00  0.1000000000E+01  0.3530110648E+00  0.2225145784E+01  0.1796647380E-16 -0.2418430166E+01  0.1566089125E+16  0.2205768660E+01  0.7730269065E-17 -0.1664509080E+01
  0.5429536967E+00  0.1000000000E+01  0.3530110648E+00  0.1317495647E+01  0.3458805615E-16 -0.2298163237E+01  0.1566089125E+16  0.1146205680E+01  0.3900637742E-16 -0.1624186264E+01
  0.4469889352E+00  0.1000000000E+01  0.3530110648E+00  0.3634360032E+00  0.9234207334E-17 -0.1760278020E+01  0.1566089125E+16 -0.1438461874E-01  0.2866164630E-17 -0.1160707086E+01
  0.4000000000E+00  0.1000000000E+01  0.3530110648E+00  0.3799847910E+00  0.5147927490E-17 -0.1393865547E+01  0.1566089125E+16  0.1330753932E+00  0.5327613627E-17 -0.8127721030E+00
  0.8000000000E+00  0.1000000000E+01  0.4000000000E+00  0.3456233086E+01 -0.9416987227E-17 -0.3045091038E+01  0.1566089125E+16  0.2833715022E+01 -0.9319562903E-17 -0.2137368948E+01
  0.7530110648E+00  0.1000000000E+01  0.4000000000E+00  0.2918295451E+01 -0.2923618222E-17 -0.2808157863E+01  0.1566089125E+16  0.2530237512E+01 -0.8894678619E-17 -0.1746257275E+01
  0.6570463033E+00  0.1000000000E+01  0.4000000000E+00  0.2527472467E+01 -0.7793668277E-17 -0.2861467185E+01  0.1566089125E+16  0.2434843851E+01 -0.2085675570E-17 -0.1401475049E+01
  0.5429536967E+00  0.1000000000E+01  0.4000000000E+00  0.1292907441E+01 -0.1731207380E-16 -0.2902782236E+01  0.1566089125E+16  0.1179393213E+01 -0.3563420137E-17 -0.1222226264E+01
  0.4469889352E+00  0.1000000000E+01  0.4000000000E+00  0.4917974996E-01 -0.1545492233E-16 -0.2148168514E+01  0.1566089125E+16 -0.1609016418E+00 -0.2673529492E-16 -0.9556222679E+00
  0.4000000000E+00  0.1000000000E+01  0.4000000000E+00  0.2730990060E+00  0.5573841879E-17 -0.1693353915E+01  0.1566089125E+16  0.1286736063E+00  0.5397190852E-17 -0.8154536592E+00
ZONE I=6, J=6, K=1, F=POINT
  0.1200000000E+01  0.1000000000E+01  0.0000000000E+00 -0.2146518729E+00  0.6332187049E-19  0.3491237364E-01  0.1566089125E+16 -0.2509507904E+00 -0.2020398818E-19  0.3722342299E-01
  0.1153011065E+01  0.1000000000E+01  0.0000000000E+00 -0.1911698272E+00 -0.8448494675E-17 -0.1034534582E-01  0.1566089125E+16 -0.2209437561E+00 -0.1040885860E-16 -0.8385883827E-02
  0.1057046303E+01  0.1000000000E+01  0.0000000000E+00 -0.1846977788E+00 -0.4822637602E-17  0.6243590723E-02  0.1566089125E+16 -0.2009717970E+00 -0.5222326629E-17  0.8152849193E-02
  0.9429536967E+00  0.1000000000E+01  0.0000000000E+00 -0.1845095644E+00  0.4011071837E-20 -0.7363995073E-02  0.1566089125E+16 -0.1853889184E+00 -0.1664247951E-18 -0.5759521519E-02
  0.8469889352E+00  0.1000000000E+01  0.0000000000E+00 -0.1723464695E+00  0.8423273316E-21  0.6877242124E-02  0.1566089125E+16 -0.1612452713E+00 -0.4350732369E-19  0.8279605838E-02
  0.8000000000E+00  0.1000000000E+01  0.0000000000E+00 -0.1984847763E+00 -0.1075732590E-18 -0.9862724273E-02  0.1566089125E+16 -0.1818398084E+00 -0.2095743653E-18 -0.8539408817E-02
  0.1200000000E+01  0.1000000000E+01  0.4698893521E-01  0.2330512775E+01 -0.3841119909E-16 -0.4567468357E+00  0.1566089125E+16  0.1856239429E+01 -0.1754665901E-16 -0.5744031349E+00
  0.1153011065E+01  0.1000000000E+01  0.4698893521E-01  0.1634953954E+01 -0.2287584726E-16 -0.3483398669E+00  0.1566089125E+16  0.1156982542E+01 -0.7981599224E-17 -0.4036817843E+00
  0.1057046303E+01  0.1000000000E+01  0.4698893521E-01  0.1452544289E+01 -0.1389647362E-16 -0.4784654245E+00  0.1566089125E+16  0.1016328405E+01 -0.1894538492E-16 -0.3900717327E+00
  0.9429536967E+00  0.1000000000E+01  0.4698893521E-01  0.7825621295E+00 -0.9871570969E-17 -0.5496111691E+00  0.1566089125E+16  0.4038970307E+00  0.6425479266E-18 -0.3202216821E+00
  0.8469889352E+00  0.1000000000E+01  0.4698893521E-01  0.6365581444E+00 -0.1849824444E-16 -0.6104361307E+00  0.1566089125E+16  0.3071205021E+00 -0.4218874316E-17 -0.2640521236E+00
  0.8000000000E+00  0.1000000000E+01  0.4698893521E-01  0.2132244104E+00 -0.1999977623E-16 -0.5434809417E+00  0.1566089125E+16 -0.7431349531E-01 -0.1631447944E-16 -0.1556674871E+00
  0.1200000000E+01  0.1000000000E+01  0.1429536967E+00  0.5729926112E+01 -0.6157571769E-16 -0.9793876623E+00  0.1566089125E+16  0.5135956836E+01 -0.4596224294E-16 -0.1209584077E+01
  0.1153011065E+01  0.1000000000E+01  0.1429536967E+00  0.4299315744E+01 -0.6712909148E-16 -0.1241824050E+01  0.1566089125E+16  0.3649788172E+01 -0.1023072486E-15 -0.1399888416E+01
  0.1057046303E+01  0.1000000000E+01  0.1429536967E+00  0.3842836574E+01 -0.3774846502E-16 -0.1149931742E+01  0.1566089125E+16  0.3243008691E+01 -0.3644782442E-16 -0.1137648911E+01
  0.9429536967E+00  0.1000000000E+01  0.1429536967E+00  0.2443005269E+01 -0.3273092844E-16 -0.1396804118E+01  0.1566089125E+16  0.1921348409E+01 -0.3227080741E-16 -0.1202089819E+01
  0.8469889352E+00  0.1000000000E+01  0.1429536967E+00  0.2037691379E+01 -0.4162010355E-16 -0.1112932226E+01  0.1566089125E+16  0.1580829506E+01 -0.3292230335E-16 -0.7915521344E+00
  0.8000000000E+00  0.1000000000E+01  0.1429536967E+00  0.1237480584E+01 -0.5788598649E-16 -0.1116031576E+01  0.1566089125E+16  0.8745153034E+00 -0.6785580816E-16 -0.7467247211E+00
  0.1200000000E+01  0.1000000000E+01  0.2570463033E+00  0.6575425387E+01 -0.2026985791E-16 -0.2115366047E+01  0.1566089125E+16  0.5840128940E+01 -0.2002058092E-16 -0.2310259908E+01
  0.1153011065E+01  0.1000000000E+01  0.2570463033E+00  0.6049490405E+01 -0.6143638154E-16 -0.2440781728E+01  0.1566089125E+16  0.5226940350E+01  0.2384876670E-16 -0.2573349331E+01
  0.1057046303E+01  0.1000000000E+01  0.2570463033E+00  0.5131658531E+01 -0.3436313476E-16 -0.2192508604E+01  0.1566089125E+16  0.4330787041E+01 -0.3562764154E-16 -0.2151922858E+01
  0.9429536967E+00  0.1000000000E+01  0.2570463033E+00  0.3957498463E+01 -0.3129133211E-16 -0.2376863177E+01  0.1566089125E+16  0.3290324764E+01  0.4217127435E-17 -0.2139841604E+01
  0.8469889352E+00  0.1000000000E+01  0.2570463033E+00  0.3177225729E+01 -0.2231945838E-16 -0.1833412778E+01  0.1566089125E+16  0.2642536014E+01 -0.3557988053E-16 -0.1522349839E+01
  0.8000000000E+00  0.1000000000E+01  0.2570463033E+00  0.2643109150E+01 -0.1062608219E-16 -0.1784126464E+01  0.1566089125E+16  0.2206892371E+01 -0.1135476734E-16 -0.1455326008E+01
  0.1200000000E+01  0.1000000000E+01  0.3530110648E+00  0.7306908175E+01  0.8859617725E-17 -0.3332200097E+01  0.1566089125E+16  0.6443815541E+01  0.9311560745E-17 -0.3470887349E+01
  0.1153011065E+01  0.1000000000E+01  0.3530110648E+00  0.6610994204E+01 -0.8390926518E-17 -0.3375698361E+01  0.1566089125E+16  0.5619988907E+01  0.4606671762E-17 -0.3433145347E+01
  0.1057046303E+01  0.1000000000E+01  0.3530110648E+00  0.5755221526E+01 -0.1270448911E-16 -0.3227094863E+01  0.1566089125E+16  0.4735508110E+01 -0.1373783405E-16 -0.3068272802E+01
  0.9429536967E+00  0.1000000000E+01  0.3530110648E+00  0.4584015986E+01 -0.1982830275E-16 -0.3214936862E+01  0.1566089125E+16  0.3753858386E+01  0.3877442313E-17 -0.2771893685E+01
  0.8469889352E+00  0.1000000000E+01  0.3530110648E+00  0.3846231148E+01  0.4262954651E-17 -0.2780087487E+01  0.1566089125E+16  0.3233424853E+01 -0.1872224093E-16 -0.2140067586E+01
  0.8000000000E+00  0.1000000000E+01  0.3530110648E+00  0.3134436538E+01  0.1137546786E-17 -0.2664512086E+01  0.1566089125E+16  0.2624511372E+01  0.1543852374E-17 -0.1947400303E+01
  0.1200000000E+01  0.1000000000E+01  0.4000000000E+00  0.7213659145E+01  0.7597219185E-17 -0.3612474576E+01  0.1566089125E+16  0.6273901579E+01  0.8122058545E-17 -0.3758345192E+01
  0.1153011065E+01  0.1000000000E+01  0.4000000000E+00  0.6890728728E+01  0.1278648909E-16 -0.3839183652E+01  0.1566089125E+16  0.5814774134E+01 -0.5162740036E-17 -0.3913168956E+01
  0.1057046303E+01  0.1000000000E+01  0.4000000000E+00  0.5890484068E+01 -0.1162760772E-16 -0.3584066933E+01  0.1566089125E+16  0.4760393304E+01 -0.2221473967E-16 -0.3492514140E+01
  0.9429536967E+00  0.1000000000E+01  0.4000000000E+00  0.4837215922E+01 -0.3090157817E-16 -0.3606548846E+01  0.1566089125E+16  0.3876350984E+01 -0.9355741120E-17 -0.3213661298E+01
  0.8469889352E+00  0.1000000000E+01  0.4000000000E+00  0.3986494583E+01 -0.1381048980E-16 -0.3100967505E+01  0.1566089125E+16  0.3248644730E+01 -0.2169154723E-16 -0.2365747750E+01
  0.8000000000E+00  0.1000000000E+01  0.4000000000E+00  0.3452137928E+01 -0.9480630086E-17 -0.3049523033E+01  0.1566089125E+16  0.2827990437E+01 -0.9240244934E-17 -0.2141316348E+01
ZONE I=6, J=6, K=1, F=POINT
  0.1600000000E+01  0.1000000000E+01  0.0000000000E+00 -0.2244580185E-01 -0.8613288451E-18 -0.7052272242E-01  0.1566089125E+16 -0.1322573252E+00 -0.1213740399E-17 -0.6144281550E-01
  0.1553011065E+01  0.1000000000E+01  0.0000000000E+00 -0.1437464706E+00  0.5915123692E-17  0.4512223363E-01  0.1566089125E+16 -0.2472534892E+00  0.1115736725E-16  0.4668315089E-01
  0.1457046303E+01  0.1000000000E+01  0.0000000000E+00 -0.1694107504E+00  0.3791891586E-17 -0.4548516315E-02  0.1566089125E+16 -0.2529716107E+00  0.5562167681E-17 -0.1988375786E-02
  0.1342953697E+01  0.1000000000E+01  0.0000000000E+00 -0.1660795347E+00 -0.9061236051E-17  0.2863428954E-01  0.1566089125E+16 -0.2273900905E+00 -0.1251998769E-16  0.3079727970E-01
  0.1246988935E+01  0.1000000000E+01  0.0000000000E+00 -0.1858631017E+00 -0.9567724856E-18 -0.9635844816E-02  0.1566089125E+16 -0.2308416609E+00 -0.6785633511E-18 -0.7377423949E-02
  0.1200000000E+01  0.1000000000E+01  0.0000000000E+00 -0.1250738803E+00  0.3790836904E-19  0.3489972195E-01  0.1566089125E+16 -0.1615281992E+00 -0.7406714979E-19  0.3724076814E-01
  0.1600000000E+01  0.1000000000E+01  0.4698893521E-01  0.3015121776E+01 -0.9030830246E-16 -0.1831680415E+00  0.1566089125E+16  0.2423239885E+01 -0.7686018378E-16 -0.9292388557E-01
  0.1553011065E+01  0.1000000000E+01  0.4698893521E-01  0.3539295225E+01 -0.4571509355E-16 -0.6538167529E+00  0.1566089125E+16  0.3015623993E+01 -0.6152181571E-16 -0.6191364211E+00
  0.1457046303E+01  0.1000000000E+01  0.4698893521E-01  0.2625253802E+01 -0.6540210481E-17 -0.3902913177E+00  0.1566089125E+16  0.2106699537E+01  0.8910375047E-17 -0.5134830347E+00
  0.1342953697E+01  0.1000000000E+01  0.4698893521E-01  0.2655764412E+01  0.2563914825E-16 -0.3336155128E+00  0.1566089125E+16  0.2151354760E+01  0.2110935936E-16 -0.4603392428E+00
  0.1246988935E+01  0.1000000000E+01  0.4698893521E-01  0.2061268517E+01 -0.1343934870E-16 -0.2801260487E+00  0.1566089125E+16  0.1603399459E+01 -0.3241793457E-16 -0.4099256257E+00
  0.1200000000E+01  0.1000000000E+01  0.4698893521E-01  0.2430455803E+01 -0.4269379102E-16 -0.4626637383E+00  0.1566089125E+16  0.1953657729E+01 -0.2160259021E-16 -0.5796892160E+00
  0.1600000000E+01  0.1000000000E+01  0.1429536967E+00  0.6560239170E+01 -0.2761946313E-15 -0.1883813424E+01  0.1566089125E+16  0.5893120991E+01 -0.3114511110E-15 -0.2320333749E+01
  0.1553011065E+01  0.1000000000E+01  0.1429536967E+00  0.8255750651E+01 -0.1486268615E-15 -0.1067954445E+01  0.1566089125E+16  0.7824916118E+01 -0.1322074098E-15 -0.1473242570E+01
  0.1457046303E+01  0.1000000000E+01  0.1429536967E+00  0.6363465770E+01  0.1635156706E-16 -0.1081054037E+01  0.1566089125E+16  0.5879649586E+01 -0.1421840903E-16 -0.1448684097E+01
  0.1342953697E+01  0.1000000000E+01  0.1429536967E+00  0.6457057517E+01  0.8832051397E-16 -0.4339015291E+00  0.1566089125E+16  0.5916069027E+01  0.6842111375E-16 -0.7553676182E+00
  0.1246988935E+01  0.1000000000E+01  0.1429536967E+00  0.5120543028E+01  0.2843382227E-16 -0.1064863157E+01  0.1566089125E+16  0.4642122433E+01  0.6581440384E-16 -0.1339459189E+01
  0.1200000000E+01  0.1000000000E+01  0.1429536967E+00  0.5899193479E+01 -0.6564587020E-16 -0.9737856694E+00  0.1566089125E+16  0.5292918599E+01 -0.5042854777E-16 -0.1204772680E+01
  0.1600000000E+01  0.1000000000E+01  0.2570463033E+00  0.1192716204E+02  0.8396005762E-16 -0.3223076489E+01  0.1566089125E+16  0.1117977175E+02  0.8161754007E-16 -0.3871305904E+01
  0.1553011065E+01  0.1000000000E+01  0.2570463033E+00  0.1088203537E+02  0.1041989541E-15 -0.2193786046E+01  0.1566089125E+16  0.1026739948E+02  0.9467955277E-16 -0.2765099658E+01
  0.1457046303E+01  0.1000000000E+01  0.2570463033E+00  0.9635689610E+01  0.1600522061E-15 -0.2236683384E+01  0.1566089125E+16  0.9042116470E+01  0.1261001952E-15 -0.2651201457E+01
  0.1342953697E+01  0.1000000000E+01  0.2570463033E+00  0.8142923741E+01  0.1090513328E-15 -0.1321556268E+01  0.1566089125E+16  0.7554267638E+01  0.7575048000E-16 -0.1666460419E+01
  0.1246988935E+01  0.1000000000E+01  0.2570463033E+00  0.6989600148E+01  0.2209312957E-16 -0.2261412650E+01  0.1566089125E+16  0.6386321449E+01 -0.1119763388E-16 -0.2518365220E+01
  0.1200000000E+01  0.1000000000E+01  0.2570463033E+00  0.6617738050E+01 -0.2077615661E-16 -0.2104964044E+01  0.1566089125E+16  0.5881195023E+01 -0.1969032656E-16 -0.2303159852E+01
  0.1600000000E+01  0.1000000000E+01  0.3530110648E+00  0.1078453182E+02  0.1798286013E-15 -0.3644720479E+01  0.1566089125E+16  0.9935971241E+01  0.1820682836E-15 -0.4091778632E+01
  0.1553011065E+01  0.1000000000E+01  0.3530110648E+00  0.1102042068E+02  0.1803222119E-15 -0.3604882936E+01  0.1566089125E+16  0.1030177541E+02  0.1753181047E-15 -0.4022097684E+01
  0.1457046303E+01  0.1000000000E+01  0.3530110648E+00  0.9899308040E+01  0.1672700300E-15 -0.3348661581E+01  0.1566089125E+16  0.9243209344E+01  0.1330989777E-15 -0.3749773520E+01
  0.1342953697E+01  0.1000000000E+01  0.3530110648E+00  0.8738918460E+01  0.1170434315E-15 -0.2858063002E+01  0.1566089125E+16  0.8080843441E+01  0.9941141130E-16 -0.3184750215E+01
  0.1246988935E+01  0.1000000000E+01  0.3530110648E+00  0.7449651210E+01  0.3763336526E-16 -0.3291598911E+01  0.1566089125E+16  0.6719656346E+01  0.6187033635E-16 -0.3498951804E+01
  0.1200000000E+01  0.1000000000E+01  0.3530110648E+00  0.7387212753E+01  0.8978766792E-17 -0.3332236173E+01  0.1566089125E+16  0.6519189449E+01  0.9376547335E-17 -0.3470772335E+01
  0.1600000000E+01  0.1000000000E+01  0.4000000000E+00  0.1112445982E+02  0.1770070223E-15 -0.4172651009E+01  0.1566089125E+16  0.1021894182E+02  0.1774495498E-15 -0.4829121666E+01
  0.1553011065E+01  0.1000000000E+01  0.4000000000E+00  0.1049212684E+02  0.1777724849E-15 -0.3458159653E+01  0.1566089125E+16  0.9753683539E+01  0.1938540460E-15 -0.4050733784E+01
  0.1457046303E+01  0.1000000000E+01  0.4000000000E+00  0.9955524505E+01  0.1450917386E-15 -0.3718414913E+01  0.1566089125E+16  0.9280781346E+01  0.1472945247E-15 -0.4241682267E+01
  0.1342953697E+01  0.1000000000E+01  0.4000000000E+00  0.8667284443E+01  0.1094696726E-15 -0.3159345760E+01  0.1566089125E+16  0.7952251649E+01  0.6736035381E-16 -0.3564899406E+01
  0.1246988935E+01  0.1000000000E+01  0.4000000000E+00  0.7741745117E+01  0.3258563324E-16 -0.3810235908E+01  0.1566089125E+16  0.6934459575E+01  0.4122750413E-16 -0.4041785457E+01
  0.1200000000E+01  0.1000000000E+01  0.4000000000E+00  0.7185100657E+01  0.7924469406E-17 -0.3599420437E+01  0.1566089125E+16  0.6247826192E+01  0.8174261512E-17 -0.3748638366E+01
ZONE I=6, J=6, K=1, F=POINT
  0.2000000000E+01  0.1000000000E+01  0.0000000000E+00  0.2397924097E+01  0.4275578872E-19  0.2123293925E+02  0.1566089125E+16  0.2400124138E+01  0.2329819324E-19  0.2212621331E+02
  0.1953011065E+01  0.1000000000E+01  0.0000000000E+00  0.1191532994E+01 -0.3454382696E-16 -0.1352828338E+00  0.1566089125E+16  0.1026453005E+01 -0.3002110242E-16 -0.1805298889E+00
  0.1857046303E+01  0.1000000000E+01  0.0000000000E+00 -0.4446300211E+00 -0.2684344120E-16  0.1481843883E+00  0.1566089125E+16 -0.6302504577E+00 -0.3748899131E-16  0.1573542083E+00
  0.1742953697E+01  0.1000000000E+01  0.0000000000E+00 -0.1048818132E-01 -0.1344370446E-18 -0.3915688599E-01  0.1566089125E+16 -0.1529607185E+00 -0.8258233608E-18 -0.3992315090E-01
  0.1646988935E+01  0.1000000000E+01  0.0000000000E+00 -0.2991353099E+00  0.9416048090E-18  0.5967677178E-01  0.1566089125E+16 -0.4399764094E+00  0.1117235839E-17  0.6325896105E-01
  0.1600000000E+01  0.1000000000E+01  0.0000000000E+00 -0.6302888903E-01 -0.9332404704E-18 -0.8243353175E-01  0.1566089125E+16 -0.1676235931E+00 -0.1254290419E-17 -0.7192760708E-01
  0.2000000000E+01  0.1000000000E+01  0.4698893521E-01 -0.9788164178E-02  0.8145693453E-18  0.4837897883E+02  0.1566089125E+16 -0.8686831374E-01  0.6111208241E-18  0.4838229375E+02
  0.1953011065E+01  0.1000000000E+01  0.4698893521E-01  0.1120534581E+02  0.1365620215E-15  0.1671440124E+01  0.1566089125E+16  0.1046780729E+02  0.1285892538E-15  0.9923462327E+00
  0.1857046303E+01  0.1000000000E+01  0.4698893521E-01  0.1183910599E+02  0.3013936998E-15 -0.1825337542E+01  0.1566089125E+16  0.1100034714E+02  0.2421776553E-15 -0.2396822968E+01
  0.1742953697E+01  0.1000000000E+01  0.4698893521E-01  0.5835744226E+01 -0.4871566833E-16 -0.8341259415E+00  0.1566089125E+16  0.5077452212E+01 -0.4572751081E-16 -0.1176708923E+01
  0.1646988935E+01  0.1000000000E+01  0.4698893521E-01  0.4550173576E+01 -0.1310844810E-15 -0.1011103523E+01  0.1566089125E+16  0.3713214800E+01 -0.8727828378E-16 -0.1017962158E+01
  0.1600000000E+01  0.1000000000E+01  0.4698893521E-01  0.2846558229E+01 -0.8734227857E-16 -0.1962393140E+00  0.1566089125E+16  0.2269443167E+01 -0.7406288431E-16 -0.1120634977E+00
  0.2000000000E+01  0.1000000000E+01  0.1429536967E+00 -0.2882240198E+00  0.2240004063E-17  0.5035069894E+02  0.1566089125E+16 -0.2531720699E+00  0.3142510527E-17  0.5010032437E+02
  0.1953011065E+01  0.1000000000E+01  0.1429536967E+00  0.3030558817E+01 -0.4888569862E-15  0.1652074615E+02  0.1566089125E+16  0.2256881573E+01 -0.5575000744E-15  0.1572513874E+02
  0.1857046303E+01  0.1000000000E+01  0.1429536967E+00  0.1308209760E+02 -0.2985385003E-15 -0.3564346077E+01  0.1566089125E+16  0.1210381420E+02 -0.2403451649E-15 -0.4333933385E+01
  0.1742953697E+01  0.1000000000E+01  0.1429536967E+00  0.1033469118E+02 -0.6968123270E-17 -0.4104095789E+01  0.1566089125E+16  0.9319573017E+01 -0.1068272777E-15 -0.4727212327E+01
  0.1646988935E+01  0.1000000000E+01  0.1429536967E+00  0.9643489458E+01 -0.1713952249E-15 -0.2135245769E+01  0.1566089125E+16  0.8553801088E+01 -0.1747893898E-15 -0.2619112211E+01
  0.1600000000E+01  0.1000000000E+01  0.1429536967E+00  0.6181797076E+01 -0.2920059360E-15 -0.1883750086E+01  0.1566089125E+16  0.5559183916E+01 -0.3284783706E-15 -0.2325132602E+01
  0.2000000000E+01  0.1000000000E+01  0.2570463033E+00  0.1429845358E-01  0.1139646756E-17  0.4969881818E+02  0.1566089125E+16  0.1291998875E-01  0.9535151057E-18  0.4956332752E+02