TITLE = "Generated from ../MESH/Convergence_0000000000.hmesh and Convergence_0000006200.hsol"
VARIABLES = "x","y","z","veloT_x","veloT_y","veloT_z","slr_4","velo_x","velo_y","velo_z"
ZONE I=6, J=6, K=1, F=POINT
  0.4000000000E+00  0.1000000000E+01  0.0000000000E+00 -0.1282364320E-01  0.2728095291E-19  0.7295810230E-02  0.6596403877E+15 -0.1186702349E-01  0.2712931342E-19  0.7116306068E-02
  0.3530110648E+00  0.1000000000E+01  0.0000000000E+00 -0.2244652587E-02  0.8701935059E-20 -0.3824277117E-03  0.6596403877E+15 -0.1021325263E-02  0.9085847145E-20 -0.2928803021E-03
  0.2570463033E+00  0.1000000000E+01  0.0000000000E+00 -0.7325918850E-03  0.1467098288E-20  0.2441734510E-02  0.6596403877E+15  0.3835729174E-03  0.1414238575E-20  0.2432955326E-02
  0.1429536967E+00  0.1000000000E+01  0.0000000000E+00 -0.1759823085E-02  0.4007505238E-21 -0.1173391476E-02  0.6596403877E+15 -0.3661834786E-03  0.3387358869E-21 -0.1116025792E-02
  0.4698893521E-01  0.1000000000E+01  0.0000000000E+00  0.1108835066E-02 -0.2575216707E-20  0.2082032374E-02  0.6596403877E+15  0.2323247527E-02 -0.2528111399E-20  0.1953648281E-02
  0.0000000000E+00  0.1000000000E+01  0.0000000000E+00 -0.7618491573E-02  0.1557488766E-22  0.2164770557E-02  0.6596403877E+15 -0.7472172900E-02  0.1630553461E-22  0.2038225822E-02
  0.4000000000E+00  0.1000000000E+01  0.4698893521E-01  0.2683099745E+00  0.3292499804E-17 -0.5027738813E-01  0.6596403877E+15  0.2679332552E+00  0.3294936039E-17 -0.5422327322E-01
  0.3530110648E+00  0.1000000000E+01  0.4698893521E-01  0.1249789065E+00  0.3007193163E-17 -0.1162002607E-01  0.6596403877E+15  0.1256910672E+00  0.3003530903E-17 -0.1476833507E-01
  0.2570463033E+00  0.1000000000E+01  0.4698893521E-01  0.9449668248E-01  0.1264312429E-17 -0.1857189345E-01  0.6596403877E+15  0.9528649923E-01  0.1260935179E-17 -0.2027581963E-01
  0.1429536967E+00  0.1000000000E+01  0.4698893521E-01 -0.7823141386E-03  0.3753833456E-18 -0.8120894498E-02  0.6596403877E+15  0.1250657206E-02  0.3811861201E-18 -0.7900669642E-02
  0.4698893521E-01  0.1000000000E+01  0.4698893521E-01 -0.5148616929E-02  0.8966154985E-19 -0.5489498906E-02  0.6596403877E+15 -0.2449338501E-02  0.9223656498E-19 -0.6750601553E-02
  0.0000000000E+00  0.1000000000E+01  0.4698893521E-01 -0.1819577690E-01  0.9801299794E-21  0.2987538906E-02  0.6596403877E+15 -0.1807589754E-01  0.1022660654E-20  0.1848775083E-02
  0.4000000000E+00  0.1000000000E+01  0.1429536967E+00  0.6171132730E+00  0.1038551414E-16 -0.1453924208E+00  0.6596403877E+15  0.6162322450E+00  0.1037824923E-16 -0.1491475156E+00
  0.3530110648E+00  0.1000000000E+01  0.1429536967E+00  0.3467977421E+00  0.6763311662E-17 -0.1793797028E+00  0.6596403877E+15  0.3466090807E+00  0.6787100046E-17 -0.1830151100E+00
  0.2570463033E+00  0.1000000000E+01  0.1429536967E+00  0.2345522512E+00  0.2944890047E-17 -0.1113763530E+00  0.6596403877E+15  0.2327540021E+00  0.2943837557E-17 -0.1129089979E+00
  0.1429536967E+00  0.1000000000E+01  0.1429536967E+00  0.3095257229E-01  0.1202101707E-17 -0.1133727363E+00  0.6596403877E+15  0.3294586993E-01  0.1202202881E-17 -0.1133595728E+00
  0.4698893521E-01  0.1000000000E+01  0.1429536967E+00 -0.1037249432E-01  0.3066292673E-18 -0.4999431643E-02  0.6596403877E+15 -0.5270188138E-02  0.3142486568E-18 -0.6769532000E-02
  0.0000000000E+00  0.1000000000E+01  0.1429536967E+00 -0.2130211090E-01  0.2442290801E-21 -0.4819646206E-03  0.6596403877E+15 -0.2133831423E-01  0.4399403270E-21 -0.1878538592E-02
  0.4000000000E+00  0.1000000000E+01  0.2570463033E+00  0.7528929432E+00  0.4973625001E-17 -0.4439903395E+00  0.6596403877E+15  0.7510235484E+00  0.4970058051E-17 -0.4422220628E+00
  0.3530110648E+00  0.1000000000E+01  0.2570463033E+00  0.5518859029E+00  0.3673095348E-17 -0.4782696028E+00  0.6596403877E+15  0.5493357539E+00  0.3718679324E-17 -0.4752163619E+00
  0.2570463033E+00  0.1000000000E+01  0.2570463033E+00  0.3271957719E+00  0.2841764825E-17 -0.3310360799E+00  0.6596403877E+15  0.3232018400E+00  0.2840371981E-17 -0.3256969459E+00
  0.1429536967E+00  0.1000000000E+01  0.2570463033E+00  0.8672726650E-01  0.1971868575E-17 -0.2904845714E+00  0.6596403877E+15  0.9122893988E-01  0.1970732033E-17 -0.2867826587E+00
  0.4698893521E-01  0.1000000000E+01  0.2570463033E+00  0.3829404708E-02  0.1237278078E-17 -0.4752317701E-01  0.6596403877E+15  0.1246864596E-01  0.1221563795E-17 -0.4871795754E-01
  0.0000000000E+00  0.1000000000E+01  0.2570463033E+00 -0.1405243879E-01 -0.4625485312E-20 -0.8766573935E-03  0.6596403877E+15 -0.1408736938E-01 -0.4590719813E-20 -0.1931038228E-02
  0.4000000000E+00  0.1000000000E+01  0.3530110648E+00  0.8260621958E+00  0.5468647210E-17 -0.7762576081E+00  0.6596403877E+15  0.8233005530E+00  0.5472421815E-17 -0.7639507500E+00
  0.3530110648E+00  0.1000000000E+01  0.3530110648E+00  0.6070500881E+00  0.4793510571E-17 -0.7666077349E+00  0.6596403877E+15  0.6034335052E+00  0.4799071890E-17 -0.7559801030E+00
  0.2570463033E+00  0.1000000000E+01  0.3530110648E+00  0.3518092228E+00  0.2929563475E-17 -0.5741677360E+00  0.6596403877E+15  0.3478928616E+00  0.2808463274E-17 -0.5658583143E+00
  0.1429536967E+00  0.1000000000E+01  0.3530110648E+00  0.9038806338E-01  0.2427740898E-17 -0.4448080072E+00  0.6596403877E+15  0.9993402855E-01  0.2389977830E-17 -0.4403844321E+00
  0.4698893521E-01  0.1000000000E+01  0.3530110648E+00  0.5817028212E-02  0.7133693805E-18 -0.1133241381E+00  0.6596403877E+15  0.1985845097E-01  0.7287037550E-18 -0.1150078756E+00
  0.0000000000E+00  0.1000000000E+01  0.3530110648E+00 -0.1423494513E-01  0.5023357906E-20 -0.1544472438E-02  0.6596403877E+15 -0.1431888036E-01  0.4936159842E-20 -0.2511213575E-02
  0.4000000000E+00  0.1000000000E+01  0.4000000000E+00  0.8220591754E+00  0.7393687148E-17 -0.9586128838E+00  0.6596403877E+15  0.8239461574E+00  0.7385595993E-17 -0.9358794323E+00
  0.3530110648E+00  0.1000000000E+01  0.4000000000E+00  0.6474607197E+00  0.6465133034E-17 -0.9313780384E+00  0.6596403877E+15  0.6477564509E+00  0.6444601704E-17 -0.9167379383E+00
  0.2570463033E+00  0.1000000000E+01  0.4000000000E+00  0.3567849803E+00  0.2655693058E-17 -0.7045030926E+00  0.6596403877E+15  0.3547208495E+00  0.2650512277E-17 -0.7002851633E+00
  0.1429536967E+00  0.1000000000E+01  0.4000000000E+00  0.9857015206E-01  0.2431537457E-17 -0.5284996808E+00  0.6596403877E+15  0.1102304235E+00  0.2442835334E-17 -0.5298449533E+00
  0.4698893521E-01  0.1000000000E+01  0.4000000000E+00  0.1950913256E-02  0.6945538367E-18 -0.1458078900E+00  0.6596403877E+15  0.1776335332E-01  0.7044940374E-18 -0.1486067622E+00
  0.0000000000E+00  0.1000000000E+01  0.4000000000E+00 -0.6776167426E-02  0.8648062896E-20 -0.3058625735E-02  0.6596403877E+15 -0.6974473687E-02  0.8494508278E-20 -0.3875451306E-02
ZONE I=6, J=6, K=1, F=POINT
  0.8000000000E+00  0.1000000000E+01  0.0000000000E+00  0.1566937422E-01 -0.8522894888E-19 -0.1141689757E-01  0.6596403877E+15  0.1634951916E-01 -0.8881746488E-19 -0.1155710959E-01
  0.7530110648E+00  0.1000000000E+01  0.0000000000E+00  0.9103992674E-04  0.3677957923E-19  0.6113847361E-02  0.6596403877E+15  0.4435901693E-03  0.4207815487E-19  0.6067963204E-02
  0.6570463033E+00  0.1000000000E+01  0.0000000000E+00 -0.2341521648E-02 -0.2642319851E-20  0.2218169230E-03  0.6596403877E+15 -0.1920725075E-02  0.4630127289E-20  0.2796381783E-03
  0.5429536967E+00  0.1000000000E+01  0.0000000000E+00 -0.7262943348E-03 -0.1372002226E-19  0.6880067543E-02  0.6596403877E+15 -0.2102475638E-03  0.4058323113E-21  0.6919795496E-02
  0.4469889352E+00  0.1000000000E+01  0.0000000000E+00 -0.2917154481E-02 -0.6775440214E-19  0.4576402005E-03  0.6596403877E+15 -0.2528170321E-02 -0.5506991719E-19  0.5878277963E-03
  0.4000000000E+00  0.1000000000E+01  0.0000000000E+00  0.1395228068E-01  0.3094860009E-19  0.6975461381E-02  0.6596403877E+15  0.1462601371E-01  0.3083961470E-19  0.6797683553E-02
  0.8000000000E+00  0.1000000000E+01  0.4698893521E-01  0.3735935983E+00 -0.2284261137E-16 -0.1946080314E-02  0.6596403877E+15  0.3707309948E+00 -0.2280266932E-16 -0.8779643673E-02
  0.7530110648E+00  0.1000000000E+01  0.4698893521E-01  0.5630134808E+00 -0.2227599508E-16 -0.6107400980E-01  0.6596403877E+15  0.5594284658E+00 -0.2206576167E-16 -0.6623913237E-01
  0.6570463033E+00  0.1000000000E+01  0.4698893521E-01  0.3302792261E+00 -0.4083450153E-17 -0.2942404535E-01  0.6596403877E+15  0.3279677920E+00 -0.4115966559E-17 -0.3246540583E-01
  0.5429536967E+00  0.1000000000E+01  0.4698893521E-01  0.3479324144E+00  0.4602022540E-17 -0.1844982437E-01  0.6596403877E+15  0.3465651782E+00  0.4576997649E-17 -0.2186708750E-01
  0.4469889352E+00  0.1000000000E+01  0.4698893521E-01  0.2101315732E+00  0.4252474965E-17 -0.8735550187E-02  0.6596403877E+15  0.2092162698E+00  0.4261337135E-17 -0.1240154135E-01
  0.4000000000E+00  0.1000000000E+01  0.4698893521E-01  0.3102817495E+00  0.3051942196E-17 -0.5104667192E-01  0.6596403877E+15  0.3104734155E+00  0.3051268612E-17 -0.5497263750E-01
  0.8000000000E+00  0.1000000000E+01  0.1429536967E+00  0.1217379581E+01 -0.5163363845E-16 -0.3968262146E+00  0.6596403877E+15  0.1210075457E+01 -0.5181513005E-16 -0.4092904780E+00
  0.7530110648E+00  0.1000000000E+01  0.1429536967E+00  0.1490040967E+01 -0.3185975671E-16 -0.2511808027E+00  0.6596403877E+15  0.1481304601E+01 -0.3173916508E-16 -0.2607871425E+00
  0.6570463033E+00  0.1000000000E+01  0.1429536967E+00  0.1006382275E+01 -0.2035920880E-17 -0.2427294023E+00  0.6596403877E+15  0.1002540785E+01 -0.1881778697E-17 -0.2477396378E+00
  0.5429536967E+00  0.1000000000E+01  0.1429536967E+00  0.8949565640E+00  0.1048652819E-16 -0.9235236983E-01  0.6596403877E+15  0.8944727971E+00  0.1047076429E-16 -0.9685412466E-01
  0.4469889352E+00  0.1000000000E+01  0.1429536967E+00  0.5622698949E+00  0.1049205705E-16 -0.1704987843E+00  0.6596403877E+15  0.5608767135E+00  0.1052238963E-16 -0.1749725289E+00
  0.4000000000E+00  0.1000000000E+01  0.1429536967E+00  0.6686605943E+00  0.1109639951E-16 -0.1448354834E+00  0.6596403877E+15  0.6682658615E+00  0.1109734825E-16 -0.1485982963E+00
  0.8000000000E+00  0.1000000000E+01  0.2570463033E+00  0.2382169457E+01 -0.1005460052E-16 -0.1021337667E+01  0.6596403877E+15  0.2368219785E+01 -0.1008942548E-16 -0.1032875409E+01
  0.7530110648E+00  0.1000000000E+01  0.2570463033E+00  0.2214593451E+01 -0.6654298431E-17 -0.7635342781E+00  0.6596403877E+15  0.2199399465E+01 -0.6703242990E-17 -0.7723381528E+00
  0.6570463033E+00  0.1000000000E+01  0.2570463033E+00  0.1669308051E+01 -0.1293234255E-17 -0.6912696113E+00  0.6596403877E+15  0.1661276478E+01 -0.1066325342E-17 -0.6954111526E+00
  0.5429536967E+00  0.1000000000E+01  0.2570463033E+00  0.1248767548E+01  0.4358029571E-17 -0.4177939274E+00  0.6596403877E+15  0.1247362954E+01  0.4334749980E-17 -0.4169494207E+00
  0.4469889352E+00  0.1000000000E+01  0.2570463033E+00  0.8596352437E+00  0.4848670170E-17 -0.5031002481E+00  0.6596403877E+15  0.8573624667E+00  0.4874731734E-17 -0.5014779317E+00
  0.4000000000E+00  0.1000000000E+01  0.2570463033E+00  0.7843619602E+00  0.5000407834E-17 -0.4433283977E+00  0.6596403877E+15  0.7820829654E+00  0.4994834793E-17 -0.4415999977E+00
  0.8000000000E+00  0.1000000000E+01  0.3530110648E+00  0.2728105754E+01  0.4591192272E-17 -0.1610688636E+01  0.6596403877E+15  0.2706756477E+01  0.4612118943E-17 -0.1611715450E+01
  0.7530110648E+00  0.1000000000E+01  0.3530110648E+00  0.2574722836E+01  0.8941369679E-17 -0.1381950545E+01  0.6596403877E+15  0.2554832944E+01  0.7821369356E-17 -0.1379643689E+01
  0.6570463033E+00  0.1000000000E+01  0.3530110648E+00  0.1962778756E+01  0.1776494591E-17 -0.1182993868E+01  0.6596403877E+15  0.1948046983E+01  0.2139539426E-17 -0.1172941638E+01
  0.5429536967E+00  0.1000000000E+01  0.3530110648E+00  0.1431905303E+01  0.1138233403E-17 -0.8490876505E+00  0.6596403877E+15  0.1427516730E+01  0.1253366080E-17 -0.8307694912E+00
  0.4469889352E+00  0.1000000000E+01  0.3530110648E+00  0.9320704818E+00  0.5492700206E-17 -0.8453211807E+00  0.6596403877E+15  0.9329325298E+00  0.5355418544E-17 -0.8300197284E+00
  0.4000000000E+00  0.1000000000E+01  0.3530110648E+00  0.8588721058E+00  0.5446559470E-17 -0.7760716258E+00  0.6596403877E+15  0.8565749716E+00  0.5447461144E-17 -0.7637434656E+00
  0.8000000000E+00  0.1000000000E+01  0.4000000000E+00  0.2876338040E+01 -0.1767028059E-17 -0.1957555982E+01  0.6596403877E+15  0.2850628121E+01 -0.1764534112E-17 -0.1947390403E+01
  0.7530110648E+00  0.1000000000E+01  0.4000000000E+00  0.2589616542E+01  0.1361098599E-17 -0.1668530560E+01  0.6596403877E+15  0.2565603291E+01  0.1168406164E-17 -0.1652317504E+01
  0.6570463033E+00  0.1000000000E+01  0.4000000000E+00  0.2018433778E+01  0.2138829353E-17 -0.1453084332E+01  0.6596403877E+15  0.1998458297E+01  0.2119060198E-17 -0.1423781590E+01
  0.5429536967E+00  0.1000000000E+01  0.4000000000E+00  0.1446759404E+01  0.7608228379E-17 -0.1118677075E+01  0.6596403877E+15  0.1442144607E+01  0.7877851509E-17 -0.1083277123E+01
  0.4469889352E+00  0.1000000000E+01  0.4000000000E+00  0.1001143831E+01  0.7875184807E-17 -0.1053799929E+01  0.6596403877E+15  0.1006740910E+01  0.7832953984E-17 -0.1026009389E+01
  0.4000000000E+00  0.1000000000E+01  0.4000000000E+00  0.8340179133E+00  0.7416683150E-17 -0.9578587495E+00  0.6596403877E+15  0.8353458374E+00  0.7409066967E-17 -0.9352103757E+00
ZONE I=6, J=6, K=1, F=POINT
  0.1200000000E+01  0.1000000000E+01  0.0000000000E+00 -0.3369729886E-01  0.5728562143E-19  0.3645943175E-01  0.6596403877E+15 -0.3379311598E-01  0.5792436468E-19  0.3692285130E-01
  0.1153011065E+01  0.1000000000E+01  0.0000000000E+00 -0.6808848072E-02 -0.3058687243E-18 -0.9657655683E-02  0.6596403877E+15 -0.6546362346E-02 -0.2974331267E-18 -0.9466392705E-02
  0.1057046303E+01  0.1000000000E+01  0.0000000000E+00  0.2964142661E-03 -0.2813332149E-19  0.5796339464E-02  0.6596403877E+15  0.6827137812E-03 -0.1831146050E-19  0.5809030755E-02
  0.9429536967E+00  0.1000000000E+01  0.0000000000E+00 -0.4384755108E-02  0.2360517149E-20 -0.8348635134E-02  0.6596403877E+15 -0.3628495738E-02  0.1486738196E-20 -0.8186218476E-02
  0.8469889352E+00  0.1000000000E+01  0.0000000000E+00  0.9710000423E-03 -0.2312757112E-19  0.5390391965E-02  0.6596403877E+15  0.1964595471E-02 -0.2249913418E-19  0.5438316519E-02
  0.8000000000E+00  0.1000000000E+01  0.0000000000E+00 -0.2951897514E-01 -0.9503984156E-19 -0.1090344451E-01  0.6596403877E+15 -0.2907569040E-01 -0.9880268790E-19 -0.1103833137E-01
  0.1200000000E+01  0.1000000000E+01  0.4698893521E-01  0.2294870810E+01 -0.4182610368E-16 -0.2212716118E+00  0.6596403877E+15  0.2292689189E+01 -0.4170588652E-16 -0.2275798333E+00
  0.1153011065E+01  0.1000000000E+01  0.4698893521E-01  0.1597948019E+01 -0.2569078141E-16 -0.7439613835E-01  0.6596403877E+15  0.1596184590E+01 -0.2562667107E-16 -0.8099023567E-01
  0.1057046303E+01  0.1000000000E+01  0.4698893521E-01  0.1447862715E+01 -0.1164240042E-16 -0.1068225733E+00  0.6596403877E+15  0.1445476247E+01 -0.1168017605E-16 -0.1136782812E+00
  0.9429536967E+00  0.1000000000E+01  0.4698893521E-01  0.8223103552E+00 -0.1385800835E-16 -0.9213082539E-01  0.6596403877E+15  0.8204914684E+00 -0.1380786254E-16 -0.9914854089E-01
  0.8469889352E+00  0.1000000000E+01  0.4698893521E-01  0.7077166960E+00 -0.2675564693E-16 -0.8898521037E-01  0.6596403877E+15  0.7063191095E+00 -0.2668685292E-16 -0.9595893311E-01
  0.8000000000E+00  0.1000000000E+01  0.4698893521E-01  0.3122365562E+00 -0.2214081220E-16  0.1219713165E-03  0.6596403877E+15  0.3100121846E+00 -0.2211104657E-16 -0.6775277883E-02
  0.1200000000E+01  0.1000000000E+01  0.1429536967E+00  0.5372430073E+01 -0.5773458937E-16 -0.6569663925E+00  0.6596403877E+15  0.5377007075E+01 -0.5772493492E-16 -0.6746231490E+00
  0.1153011065E+01  0.1000000000E+01  0.1429536967E+00  0.3904985670E+01 -0.6656987812E-16 -0.8673644862E+00  0.6596403877E+15  0.3904404793E+01 -0.6652894233E-16 -0.8858217596E+00
  0.1057046303E+01  0.1000000000E+01  0.1429536967E+00  0.3486139830E+01 -0.3641427784E-16 -0.6545675680E+00  0.6596403877E+15  0.3483856552E+01 -0.3642788839E-16 -0.6732110283E+00
  0.9429536967E+00  0.1000000000E+01  0.1429536967E+00  0.2184107467E+01 -0.3198065273E-16 -0.7636944636E+00  0.6596403877E+15  0.2181894722E+01 -0.3198370337E-16 -0.7815388476E+00
  0.8469889352E+00  0.1000000000E+01  0.1429536967E+00  0.1865750724E+01 -0.4795766662E-16 -0.4153063566E+00  0.6596403877E+15  0.1861988075E+01 -0.4780262535E-16 -0.4303160009E+00
  0.8000000000E+00  0.1000000000E+01  0.1429536967E+00  0.1132861263E+01 -0.5387035690E-16 -0.3984778375E+00  0.6596403877E+15  0.1128288808E+01 -0.5403939399E-16 -0.4109052116E+00
  0.1200000000E+01  0.1000000000E+01  0.2570463033E+00  0.5842873900E+01 -0.5881779712E-17 -0.1803360984E+01  0.6596403877E+15  0.5846536072E+01 -0.5823654716E-17 -0.1820748139E+01
  0.1153011065E+01  0.1000000000E+01  0.2570463033E+00  0.5291454233E+01 -0.3659940639E-16 -0.2062895260E+01  0.6596403877E+15  0.5291499059E+01 -0.3679623702E-16 -0.2081625437E+01
  0.1057046303E+01  0.1000000000E+01  0.2570463033E+00  0.4410070858E+01 -0.2879458278E-16 -0.1682326161E+01  0.6596403877E+15  0.4408444051E+01 -0.2880007619E-16 -0.1701600079E+01
  0.9429536967E+00  0.1000000000E+01  0.2570463033E+00  0.3378483520E+01 -0.2722001163E-16 -0.1732399134E+01  0.6596403877E+15  0.3373856476E+01 -0.2694776942E-16 -0.1751567675E+01
  0.8469889352E+00  0.1000000000E+01  0.2570463033E+00  0.2774917760E+01 -0.1135160591E-16 -0.1097352696E+01  0.6596403877E+15  0.2764418311E+01 -0.1189979095E-16 -0.1112334751E+01
  0.8000000000E+00  0.1000000000E+01  0.2570463033E+00  0.2343699603E+01 -0.1021838931E-16 -0.1023973381E+01  0.6596403877E+15  0.2330931431E+01 -0.1023688394E-16 -0.1035079599E+01
  0.1200000000E+01  0.1000000000E+01  0.3530110648E+00  0.6287036032E+01  0.3193428695E-16 -0.2986382025E+01  0.6596403877E+15  0.6292864721E+01  0.3195725610E-16 -0.2995247900E+01
  0.1153011065E+01  0.1000000000E+01  0.3530110648E+00  0.5542790553E+01  0.1363482706E-16 -0.2936509772E+01  0.6596403877E+15  0.5543074721E+01  0.1364300582E-16 -0.2945022724E+01
  0.1057046303E+01  0.1000000000E+01  0.3530110648E+00  0.4758977888E+01 -0.5618280369E-17 -0.2596371947E+01  0.6596403877E+15  0.4758873881E+01 -0.5485385946E-17 -0.2605770070E+01
  0.9429536967E+00  0.1000000000E+01  0.3530110648E+00  0.3739752192E+01 -0.1194520821E-16 -0.2402925702E+01  0.6596403877E+15  0.3733668406E+01 -0.1164038966E-16 -0.2413318499E+01
  0.8469889352E+00  0.1000000000E+01  0.3530110648E+00  0.3201123358E+01  0.2036566234E-17 -0.1798273125E+01  0.6596403877E+15  0.3183659440E+01  0.1573766123E-17 -0.1803825763E+01
  0.8000000000E+00  0.1000000000E+01  0.3530110648E+00  0.2680540500E+01  0.4641678244E-17 -0.1610987663E+01  0.6596403877E+15  0.2660842370E+01  0.4666761415E-17 -0.1612032780E+01
  0.1200000000E+01  0.1000000000E+01  0.4000000000E+00  0.6070109957E+01  0.3640534190E-16 -0.3309802503E+01  0.6596403877E+15  0.6074402165E+01  0.3640264901E-16 -0.3311912113E+01
  0.1153011065E+01  0.1000000000E+01  0.4000000000E+00  0.5687131662E+01  0.2863704380E-16 -0.3452469477E+01  0.6596403877E+15  0.5686939117E+01  0.2861699905E-16 -0.3456070935E+01
  0.1057046303E+01  0.1000000000E+01  0.4000000000E+00  0.4760653578E+01  0.4400047257E-17 -0.3000745034E+01  0.6596403877E+15  0.4761553802E+01  0.4327703858E-17 -0.3005523526E+01
  0.9429536967E+00  0.1000000000E+01  0.4000000000E+00  0.3860226161E+01 -0.1196543267E-16 -0.2793126052E+01  0.6596403877E+15  0.3852824786E+01 -0.1179697213E-16 -0.2796897359E+01
  0.8469889352E+00  0.1000000000E+01  0.4000000000E+00  0.3206216620E+01 -0.6237289224E-17 -0.2109976992E+01  0.6596403877E+15  0.3184120282E+01 -0.6443366821E-17 -0.2106484113E+01
  0.8000000000E+00  0.1000000000E+01  0.4000000000E+00  0.2872038860E+01 -0.1749842662E-17 -0.1961031402E+01  0.6596403877E+15  0.2846132910E+01 -0.1745094379E-17 -0.1950397532E+01
ZONE I=6, J=6, K=1, F=POINT
  0.1600000000E+01  0.1000000000E+01  0.0000000000E+00  0.1282386535E+00 -0.9357480792E-18 -0.7127551226E-01  0.6596403877E+15  0.1262279562E+00 -0.1052841006E-17 -0.7078396225E-01
  0.1553011065E+01  0.1000000000E+01  0.0000000000E+00  0.8744728078E-02 -0.1237122189E-17  0.4529334971E-01  0.6596403877E+15  0.6661237053E-02 -0.1159046072E-17  0.4519097131E-01
  0.1457046303E+01  0.1000000000E+01  0.0000000000E+00 -0.9010015506E-02 -0.5638988155E-19 -0.3179705668E-02  0.6596403877E+15 -0.1058408406E-01 -0.3633043248E-19 -0.3119417463E-02
  0.1342953697E+01  0.1000000000E+01  0.0000000000E+00  0.3038372737E-02  0.2801160346E-18  0.2977296829E-01  0.6596403877E+15  0.2184713187E-02  0.2318916840E-18  0.2965562186E-01
  0.1246988935E+01  0.1000000000E+01  0.0000000000E+00 -0.1009541407E-01  0.1176572434E-18 -0.8242211265E-02  0.6596403877E+15 -0.1074512615E-01  0.1176276853E-18 -0.8041374912E-02
  0.1200000000E+01  0.1000000000E+01  0.0000000000E+00  0.5535181855E-01  0.6108891753E-19  0.3647759440E-01  0.6596403877E+15  0.5524622064E-01  0.6158943154E-19  0.3693394609E-01
  0.1600000000E+01  0.1000000000E+01  0.4698893521E-01  0.2994667078E+01 -0.8738679799E-16  0.2115502751E+00  0.6596403877E+15  0.2985200251E+01 -0.8718033155E-16  0.2265544778E+00
  0.1553011065E+01  0.1000000000E+01  0.4698893521E-01  0.3515446504E+01 -0.4339070340E-16 -0.2889384832E+00  0.6596403877E+15  0.3509638125E+01 -0.4358120018E-16 -0.2760686075E+00
  0.1457046303E+01  0.1000000000E+01  0.4698893521E-01  0.2581547017E+01 -0.4302402592E-17 -0.9835017376E-01  0.6596403877E+15  0.2577258701E+01 -0.4160875456E-17 -0.9267975786E-01
  0.1342953697E+01  0.1000000000E+01  0.4698893521E-01  0.2605854280E+01  0.2850126066E-16 -0.7448109256E-01  0.6596403877E+15  0.2601234870E+01  0.2845940296E-16 -0.7456522801E-01
  0.1246988935E+01  0.1000000000E+01  0.4698893521E-01  0.2030436655E+01 -0.7150616504E-17 -0.4699832174E-01  0.6596403877E+15  0.2025918228E+01 -0.7329136031E-17 -0.5141735916E-01
  0.1200000000E+01  0.1000000000E+01  0.4698893521E-01  0.2393505997E+01 -0.4604608346E-16 -0.2269662839E+00  0.6596403877E+15  0.2388687779E+01 -0.4587112822E-16 -0.2328752896E+00
  0.1600000000E+01  0.1000000000E+01  0.1429536967E+00  0.6431361366E+01 -0.2670145863E-15 -0.1751229682E+01  0.6596403877E+15  0.6406562875E+01 -0.2674414413E-15 -0.1739850279E+01
  0.1553011065E+01  0.1000000000E+01  0.1429536967E+00  0.8163856883E+01 -0.1412596868E-15 -0.9144937172E+00  0.6596403877E+15  0.8164125780E+01 -0.1415125383E-15 -0.9044212351E+00
  0.1457046303E+01  0.1000000000E+01  0.1429536967E+00  0.6183461668E+01  0.3034296892E-16 -0.9065358047E+00  0.6596403877E+15  0.6188228172E+01  0.3046182028E-16 -0.9045130143E+00
  0.1342953697E+01  0.1000000000E+01  0.1429536967E+00  0.6193924403E+01  0.9972833233E-16 -0.2152168751E+00  0.6596403877E+15  0.6195728957E+01  0.9980776737E-16 -0.2233824778E+00
  0.1246988935E+01  0.1000000000E+01  0.1429536967E+00  0.4830060237E+01  0.2662796458E-16 -0.7836019600E+00  0.6596403877E+15  0.4832245080E+01  0.2669099779E-16 -0.7983013747E+00
  0.1200000000E+01  0.1000000000E+01  0.1429536967E+00  0.5539410361E+01 -0.6188951285E-16 -0.6513961602E+00  0.6596403877E+15  0.5533059154E+01 -0.6177136826E-16 -0.6698235227E+00
  0.1600000000E+01  0.1000000000E+01  0.2570463033E+00  0.1149633039E+02  0.1046800231E-15 -0.3472797768E+01  0.6596403877E+15  0.1149677758E+02  0.1046014056E-15 -0.3472290738E+01
  0.1553011065E+01  0.1000000000E+01  0.2570463033E+00  0.1046201972E+02  0.1266299848E-15 -0.2393293273E+01  0.6596403877E+15  0.1047193556E+02  0.1265761441E-15 -0.2390178473E+01
  0.1457046303E+01  0.1000000000E+01  0.2570463033E+00  0.9171488480E+01  0.1826061076E-15 -0.2304423615E+01  0.6596403877E+15  0.9186219319E+01  0.1833530994E-15 -0.2309022027E+01
  0.1342953697E+01  0.1000000000E+01  0.2570463033E+00  0.7583781034E+01  0.1302967754E-15 -0.1235450847E+01  0.6596403877E+15  0.7595524100E+01  0.1309531420E-15 -0.1247271686E+01
  0.1246988935E+01  0.1000000000E+01  0.2570463033E+00  0.6328065511E+01  0.4160604839E-16 -0.2022537790E+01  0.6596403877E+15  0.6336280020E+01  0.4181214538E-16 -0.2038270957E+01
  0.1200000000E+01  0.1000000000E+01  0.2570463033E+00  0.5882691612E+01 -0.6155219997E-17 -0.1793592986E+01  0.6596403877E+15  0.5886353684E+01 -0.6088270944E-17 -0.1813861353E+01
  0.1600000000E+01  0.1000000000E+01  0.3530110648E+00  0.1009376304E+02  0.2092409443E-15 -0.3879815831E+01  0.6596403877E+15  0.1008582049E+02  0.2091544204E-15 -0.3878748601E+01
  0.1553011065E+01  0.1000000000E+01  0.3530110648E+00  0.1031857446E+02  0.2108739711E-15 -0.3821294325E+01  0.6596403877E+15  0.1033442332E+02  0.2109567488E-15 -0.3822150631E+01
  0.1457046303E+01  0.1000000000E+01  0.3530110648E+00  0.9175643855E+01  0.1949877047E-15 -0.3471955938E+01  0.6596403877E+15  0.9196219316E+01  0.1962275902E-15 -0.3476857745E+01
  0.1342953697E+01  0.1000000000E+01  0.3530110648E+00  0.7924822640E+01  0.1462016533E-15 -0.2775738546E+01  0.6596403877E+15  0.7939379572E+01  0.1467005277E-15 -0.2780990723E+01
  0.1246988935E+01  0.1000000000E+01  0.3530110648E+00  0.6495831822E+01  0.6250433831E-16 -0.3023036092E+01  0.6596403877E+15  0.6508501946E+01  0.6227658268E-16 -0.3030266680E+01
  0.1200000000E+01  0.1000000000E+01  0.3530110648E+00  0.6365110796E+01  0.3205152788E-16 -0.2986697595E+01  0.6596403877E+15  0.6367183056E+01  0.3204179047E-16 -0.2995300280E+01
  0.1600000000E+01  0.1000000000E+01  0.4000000000E+00  0.1032082639E+02  0.2107768013E-15 -0.4542715386E+01  0.6596403877E+15  0.1031643945E+02  0.2106856576E-15 -0.4562429322E+01
  0.1553011065E+01  0.1000000000E+01  0.4000000000E+00  0.9692035026E+01  0.2229730140E-15 -0.3812062285E+01  0.6596403877E+15  0.9709761599E+01  0.2228673663E-15 -0.3825978318E+01
  0.1457046303E+01  0.1000000000E+01  0.4000000000E+00  0.9125674964E+01  0.1884603745E-15 -0.4003337841E+01  0.6596403877E+15  0.9144370460E+01  0.1883370954E-15 -0.4007988153E+01
  0.1342953697E+01  0.1000000000E+01  0.4000000000E+00  0.7726543662E+01  0.1516833886E-15 -0.3189661277E+01  0.6596403877E+15  0.7742561198E+01  0.1525000083E-15 -0.3192303614E+01
  0.1246988935E+01  0.1000000000E+01  0.4000000000E+00  0.6665184893E+01  0.6118288545E-16 -0.3601352791E+01  0.6596403877E+15  0.6678131100E+01  0.6109561421E-16 -0.3603903293E+01
  0.1200000000E+01  0.1000000000E+01  0.4000000000E+00  0.6043625550E+01  0.3666337099E-16 -0.3297450218E+01  0.6596403877E+15  0.6049674191E+01  0.3664732647E-16 -0.3302452983E+01
ZONE I=6, J=6, K=1, F=POINT
  0.2000000000E+01  0.1000000000E+01  0.0000000000E+00  0.2401829017E+01  0.7291920149E-19  0.2123367992E+02  0.6596403877E+15  0.2429265049E+01  0.9307805129E-19  0.2215449438E+02
  0.1953011065E+01  0.1000000000E+01  0.0000000000E+00  0.1289595994E+01 -0.3725799795E-16 -0.1377853353E+00  0.6596403877E+15  0.1291374239E+01 -0.3596327340E-16 -0.1513102132E+00
  0.1857046303E+01  0.1000000000E+01  0.0000000000E+00 -0.3094646935E+00 -0.1895627740E-16  0.1520310384E+00  0.6596403877E+15 -0.3127515619E+00 -0.1959960516E-16  0.1506336448E+00
  0.1742953697E+01  0.1000000000E+01  0.0000000000E+00  0.1313456749E+00  0.2057544336E-18 -0.3722994474E-01  0.6596403877E+15  0.1301253202E+00  0.8504417686E-19 -0.3698291391E-01
  0.1646988935E+01  0.1000000000E+01  0.0000000000E+00 -0.1305179368E+00  0.3231738546E-18  0.6057234528E-01  0.6596403877E+15 -0.1317261627E+00  0.2933737840E-18  0.5981701871E-01
  0.1600000000E+01  0.1000000000E+01  0.0000000000E+00  0.8623994281E-01 -0.1015077666E-17 -0.8333704431E-01  0.6596403877E+15  0.8425997845E-01 -0.1133249610E-17 -0.8147606497E-01
  0.2000000000E+01  0.1000000000E+01  0.4698893521E-01 -0.1286498345E-01  0.7513992817E-18  0.4848039091E+02  0.6596403877E+15 -0.5617979129E-01  0.6866676168E-18  0.4865287698E+02
  0.1953011065E+01  0.1000000000E+01  0.4698893521E-01  0.1095523985E+02  0.1354379162E-15  0.1459535103E+01  0.6596403877E+15  0.1093243120E+02  0.1341385607E-15  0.1465986893E+01
  0.1857046303E+01  0.1000000000E+01  0.4698893521E-01  0.1160390230E+02  0.2865683608E-15 -0.1906048115E+01  0.6596403877E+15  0.1159271894E+02  0.2859217851E-15 -0.1911387996E+01
  0.1742953697E+01  0.1000000000E+01  0.4698893521E-01  0.5705030380E+01 -0.4257873812E-16 -0.6610834308E+00  0.6596403877E+15  0.5696106375E+01 -0.4218711952E-16 -0.6623733913E+00
  0.1646988935E+01  0.1000000000E+01  0.4698893521E-01  0.4442062343E+01 -0.1214280491E-15 -0.6463939208E+00  0.6596403877E+15  0.4427668381E+01 -0.1208811430E-15 -0.6330792423E+00
  0.1600000000E+01  0.1000000000E+01  0.4698893521E-01  0.2829358345E+01 -0.8451635501E-16  0.1974230172E+00  0.6596403877E+15  0.2829511097E+01 -0.8413869600E-16  0.2071068041E+00
  0.2000000000E+01  0.1000000000E+01  0.1429536967E+00 -0.2819729277E+00  0.2719446769E-17  0.5049975347E+02  0.6596403877E+15 -0.2575688025E+00  0.2756510318E-17  0.5043411967E+02
  0.1953011065E+01  0.1000000000E+01  0.1429536967E+00  0.2781330741E+01 -0.5108081654E-15  0.1634847760E+02  0.6596403877E+15  0.2757237461E+01 -0.5116333625E-15  0.1637143834E+02
  0.1857046303E+01  0.1000000000E+01  0.1429536967E+00  0.1267649705E+02 -0.2638893345E-15 -0.3674070315E+01  0.6596403877E+15  0.1265630181E+02 -0.2628985967E-15 -0.3680078325E+01
  0.1742953697E+01  0.1000000000E+01  0.1429536967E+00  0.9959905539E+01 -0.3211847521E-16 -0.4066644687E+01  0.6596403877E+15  0.9936582996E+01 -0.3489788998E-16 -0.4069770110E+01
  0.1646988935E+01  0.1000000000E+01  0.1429536967E+00  0.9373425904E+01 -0.1610353677E-15 -0.2018669800E+01  0.6596403877E+15  0.9350263443E+01 -0.1609656713E-15 -0.2007418450E+01
  0.1600000000E+01  0.1000000000E+01  0.1429536967E+00  0.6058470745E+01 -0.2836420563E-15 -0.1751470888E+01  0.6596403877E+15  0.6074867744E+01 -0.2844001179E-15 -0.1744510268E+01
  0.2000000000E+01  0.1000000000E+01  0.2570463033E+00  0.1891691483E-01  0.1128773841E-17  0.4986879041E+02  0.6596403877E+15  0.1784039045E-01  0.1098461040E-17  0.4987157403E+02