TITLE = "Generated from ../MESH/Convergence_0000000000.hmesh and Convergence_0000007200.hsol"
VARIABLES = "x","y","z","veloT_x","veloT_y","veloT_z","slr_4","velo_x","velo_y","velo_z"
ZONE I=6, J=6, K=1, F=POINT
  0.4000000000E+00  0.1000000000E+01  0.0000000000E+00 -0.9411342129E-02  0.2660383836E-19  0.7444627677E-02  0.7181077491E+15 -0.5416219496E-02  0.3006429890E-19  0.7682703749E-02
  0.3530110648E+00  0.1000000000E+01  0.0000000000E+00  0.2376083778E-02  0.6466641707E-20 -0.2601283257E-03  0.7181077491E+15  0.5969152714E-02  0.6353744385E-20 -0.3065716905E-03
  0.2570463033E+00  0.1000000000E+01  0.0000000000E+00  0.3490833338E-02 -0.1545393176E-23  0.2330902252E-02  0.7181077491E+15  0.6301228242E-02  0.1318727977E-21  0.2201007202E-02
  0.1429536967E+00  0.1000000000E+01  0.0000000000E+00  0.2810267428E-02 -0.3152343001E-22 -0.9714219462E-03  0.7181077491E+15  0.5238812716E-02 -0.1492407714E-21 -0.9270174046E-03
  0.4698893521E-01  0.1000000000E+01  0.0000000000E+00  0.4795325218E-02 -0.2741100876E-20  0.1846894227E-02  0.7181077491E+15  0.6642599279E-02 -0.2013261154E-20  0.1384073800E-02
  0.0000000000E+00  0.1000000000E+01  0.0000000000E+00 -0.7349658515E-02  0.1790301865E-22  0.1827306066E-02  0.7181077491E+15 -0.6979485895E-02  0.7658119586E-23  0.1485781992E-02
  0.4000000000E+00  0.1000000000E+01  0.4698893521E-01  0.2718795450E+00  0.3425104885E-17 -0.1661054087E-01  0.7181077491E+15  0.2910027848E+00  0.3316089330E-17 -0.8203369759E-02
  0.3530110648E+00  0.1000000000E+01  0.4698893521E-01  0.1315685402E+00  0.3040612744E-17  0.1861338566E-01  0.7181077491E+15  0.1496233802E+00  0.2843646316E-17  0.2379059895E-01
  0.2570463033E+00  0.1000000000E+01  0.4698893521E-01  0.9926043991E-01  0.1362047072E-17  0.7451570843E-03  0.7181077491E+15  0.1147016712E+00  0.1344493880E-17  0.2535768899E-02
  0.1429536967E+00  0.1000000000E+01  0.4698893521E-01  0.3761000250E-02  0.4324168467E-18  0.1401116316E-02  0.7181077491E+15  0.1966671107E-01  0.4714550860E-18 -0.5744905937E-02
  0.4698893521E-01  0.1000000000E+01  0.4698893521E-01 -0.4295395541E-03  0.1033139195E-18 -0.4949707007E-02  0.7181077491E+15  0.1080222921E-01  0.1194303436E-18 -0.1631121545E-01
  0.0000000000E+00  0.1000000000E+01  0.4698893521E-01 -0.1800959755E-01  0.9418188882E-21 -0.4279073621E-03  0.7181077491E+15 -0.1752884838E-01  0.7461629928E-21 -0.2345385370E-02
  0.4000000000E+00  0.1000000000E+01  0.1429536967E+00  0.6417374171E+00  0.1079824091E-16 -0.1083502832E+00  0.7181077491E+15  0.6699909711E+00  0.1117938148E-16 -0.9388975611E-01
  0.3530110648E+00  0.1000000000E+01  0.1429536967E+00  0.3770710254E+00  0.6740455798E-17 -0.1458007862E+00  0.7181077491E+15  0.3994427974E+00  0.6648210768E-17 -0.1340811023E+00
  0.2570463033E+00  0.1000000000E+01  0.1429536967E+00  0.2559552708E+00  0.3157781648E-17 -0.8726333676E-01  0.7181077491E+15  0.2794742364E+00  0.3166865112E-17 -0.8275553330E-01
  0.1429536967E+00  0.1000000000E+01  0.1429536967E+00  0.4823263593E-01  0.1311560666E-17 -0.1001889021E+00  0.7181077491E+15  0.7306843606E-01  0.1308119147E-17 -0.1069964590E+00
  0.4698893521E-01  0.1000000000E+01  0.1429536967E+00  0.5116312277E-02  0.3368384307E-18 -0.4637173715E-02  0.7181077491E+15  0.1693871772E-01  0.3917538967E-18 -0.1653504021E-01
  0.0000000000E+00  0.1000000000E+01  0.1429536967E+00 -0.2145678007E-01  0.1022043624E-21 -0.4841909301E-02  0.7181077491E+15 -0.2162572463E-01 -0.9003241578E-21 -0.6703401686E-02
  0.4000000000E+00  0.1000000000E+01  0.2570463033E+00  0.7993177043E+00  0.5358598680E-17 -0.4297366416E+00  0.7181077491E+15  0.8427946234E+00  0.5398349210E-17 -0.4152923774E+00
  0.3530110648E+00  0.1000000000E+01  0.2570463033E+00  0.6075208063E+00  0.4629219945E-17 -0.4594069190E+00  0.7181077491E+15  0.6404105712E+00  0.4716694093E-17 -0.4533817962E+00
  0.2570463033E+00  0.1000000000E+01  0.2570463033E+00  0.3714583267E+00  0.3041207599E-17 -0.3116128147E+00  0.7181077491E+15  0.4039601670E+00  0.3043325399E-17 -0.3130807047E+00
  0.1429536967E+00  0.1000000000E+01  0.2570463033E+00  0.1255390173E+00  0.2072195752E-17 -0.2810614787E+00  0.7181077491E+15  0.1573419799E+00  0.2072108490E-17 -0.2876134943E+00
  0.4698893521E-01  0.1000000000E+01  0.2570463033E+00  0.3357550499E-01  0.1250736481E-17 -0.5005216842E-01  0.7181077491E+15  0.4765107190E-01  0.1136786051E-17 -0.5886880856E-01
  0.0000000000E+00  0.1000000000E+01  0.2570463033E+00 -0.1409292581E-01 -0.3931300120E-20 -0.5242484103E-02  0.7181077491E+15 -0.1419180105E-01 -0.2594640176E-20 -0.5763405723E-02
  0.4000000000E+00  0.1000000000E+01  0.3530110648E+00  0.8911254645E+00  0.5583047017E-17 -0.7479084639E+00  0.7181077491E+15  0.9620836817E+00  0.5534027167E-17 -0.7554946879E+00
  0.3530110648E+00  0.1000000000E+01  0.3530110648E+00  0.6836639306E+00  0.4923049138E-17 -0.7386385130E+00  0.7181077491E+15  0.7275029914E+00  0.4907049636E-17 -0.7521030075E+00
  0.2570463033E+00  0.1000000000E+01  0.3530110648E+00  0.4216489157E+00  0.2232504574E-17 -0.5521533488E+00  0.7181077491E+15  0.4560155383E+00  0.2424591080E-17 -0.5654097653E+00
  0.1429536967E+00  0.1000000000E+01  0.3530110648E+00  0.1547376948E+00  0.2269904616E-17 -0.4373862639E+00  0.7181077491E+15  0.1881352288E+00  0.2377964335E-17 -0.4496598276E+00
  0.4698893521E-01  0.1000000000E+01  0.3530110648E+00  0.4928869709E-01  0.7520062433E-18 -0.1201125588E+00  0.7181077491E+15  0.6192174144E-01  0.8365057026E-18 -0.1296143661E+00
  0.0000000000E+00  0.1000000000E+01  0.3530110648E+00 -0.1434430461E-01  0.6239207516E-20 -0.6786425430E-02  0.7181077491E+15 -0.1450854158E-01  0.5837671500E-20 -0.5986850022E-02
  0.4000000000E+00  0.1000000000E+01  0.4000000000E+00  0.9087599246E+00  0.7266055061E-17 -0.9088766618E+00  0.7181077491E+15  0.9816657372E+00  0.7283649256E-17 -0.9455393595E+00
  0.3530110648E+00  0.1000000000E+01  0.4000000000E+00  0.7453806587E+00  0.6149571057E-17 -0.8940500146E+00  0.7181077491E+15  0.7874639170E+00  0.6167979444E-17 -0.9219214395E+00
  0.2570463033E+00  0.1000000000E+01  0.4000000000E+00  0.4436178997E+00  0.2839947180E-17 -0.6825975754E+00  0.7181077491E+15  0.4762829926E+00  0.2792017628E-17 -0.7011702076E+00
  0.1429536967E+00  0.1000000000E+01  0.4000000000E+00  0.1784446121E+00  0.2560740818E-17 -0.5238808609E+00  0.7181077491E+15  0.2102054635E+00  0.2423588407E-17 -0.5359408724E+00
  0.4698893521E-01  0.1000000000E+01  0.4000000000E+00  0.5415178695E-01  0.6903990120E-18 -0.1543849550E+00  0.7181077491E+15  0.6429727800E-01  0.7073494719E-18 -0.1606425322E+00
  0.0000000000E+00  0.1000000000E+01  0.4000000000E+00 -0.7123716945E-02  0.7992142295E-20 -0.7907740763E-02  0.7181077491E+15 -0.7372920009E-02  0.7199872736E-20 -0.6179632866E-02
ZONE I=6, J=6, K=1, F=POINT
  0.8000000000E+00  0.1000000000E+01  0.0000000000E+00  0.1672382646E-01 -0.9040212657E-19 -0.1163340985E-01  0.7181077491E+15  0.2616298148E-01 -0.8812765957E-19 -0.1152136378E-01
  0.7530110648E+00  0.1000000000E+01  0.0000000000E+00  0.1747746641E-02  0.6027486007E-19  0.6162323312E-02  0.7181077491E+15  0.1079351694E-01  0.2699229176E-18  0.6022401974E-02
  0.6570463033E+00  0.1000000000E+01  0.0000000000E+00  0.2455792965E-03  0.3179324417E-19  0.4515618969E-03  0.7181077491E+15  0.8027338134E-02  0.1319334661E-18  0.2175085375E-03
  0.5429536967E+00  0.1000000000E+01  0.0000000000E+00  0.2210331871E-02  0.6290682371E-19  0.7107318645E-02  0.7181077491E+15  0.8394260547E-02  0.2216314309E-18  0.6836678904E-02
  0.4469889352E+00  0.1000000000E+01  0.0000000000E+00 -0.1270630056E-03  0.1621335354E-19  0.6566166528E-03  0.7181077491E+15  0.5082808425E-02  0.1752613785E-18  0.4828313911E-03
  0.4000000000E+00  0.1000000000E+01  0.0000000000E+00  0.1700919736E-01  0.3014517233E-19  0.7129597591E-02  0.7181077491E+15  0.2161277351E-01  0.3349307219E-19  0.7344186354E-02
  0.8000000000E+00  0.1000000000E+01  0.4698893521E-01  0.3888301675E+00 -0.2235964775E-16  0.3481554614E-01  0.7181077491E+15  0.4145960084E+00 -0.2265379381E-16  0.5429166302E-01
  0.7530110648E+00  0.1000000000E+01  0.4698893521E-01  0.5768595070E+00 -0.2117607103E-16 -0.2288182511E-01  0.7181077491E+15  0.6020196849E+00 -0.2263367072E-16 -0.3879037088E-02
  0.6570463033E+00  0.1000000000E+01  0.4698893521E-01  0.3413742346E+00 -0.3911604520E-17  0.6627626391E-02  0.7181077491E+15  0.3635508006E+00 -0.3611172778E-17  0.2896310783E-01
  0.5429536967E+00  0.1000000000E+01  0.4698893521E-01  0.3528086444E+00  0.4658661254E-17  0.1625081234E-01  0.7181077491E+15  0.3745664950E+00  0.5043338562E-17  0.3939589126E-01
  0.4469889352E+00  0.1000000000E+01  0.4698893521E-01  0.2113051098E+00  0.4399524018E-17  0.2698879470E-01  0.7181077491E+15  0.2330364216E+00  0.4254946559E-17  0.4078305903E-01
  0.4000000000E+00  0.1000000000E+01  0.4698893521E-01  0.3134839323E+00  0.3187888956E-17 -0.1737324464E-01  0.7181077491E+15  0.3328062387E+00  0.3075753487E-17 -0.8958127840E-02
  0.8000000000E+00  0.1000000000E+01  0.1429536967E+00  0.1290103175E+01 -0.5135799418E-16 -0.3649724164E+00  0.7181077491E+15  0.1316304158E+01 -0.5061462617E-16 -0.3304468688E+00
  0.7530110648E+00  0.1000000000E+01  0.1429536967E+00  0.1557856347E+01 -0.3121637725E-16 -0.2178554780E+00  0.7181077491E+15  0.1583561546E+01 -0.3162158802E-16 -0.1836856588E+00
  0.6570463033E+00  0.1000000000E+01  0.1429536967E+00  0.1062579300E+01 -0.1013616577E-17 -0.2078203884E+00  0.7181077491E+15  0.1085308036E+01 -0.1915192051E-17 -0.1771477088E+00
  0.5429536967E+00  0.1000000000E+01  0.1429536967E+00  0.9288345532E+00  0.1076829092E-16 -0.5809373652E-01  0.7181077491E+15  0.9563181394E+00  0.1157037432E-16 -0.3381448330E-01
  0.4469889352E+00  0.1000000000E+01  0.1429536967E+00  0.5823855781E+00  0.1066013313E-16 -0.1338965767E+00  0.7181077491E+15  0.6142394967E+00  0.1035022579E-16 -0.1157482948E+00
  0.4000000000E+00  0.1000000000E+01  0.1429536967E+00  0.6931388178E+00  0.1150127354E-16 -0.1077875716E+00  0.7181077491E+15  0.7211905664E+00  0.1188805386E-16 -0.9333462387E-01
  0.8000000000E+00  0.1000000000E+01  0.2570463033E+00  0.2520560991E+01 -0.9119219187E-17 -0.1004562804E+01  0.7181077491E+15  0.2547012289E+01 -0.9060398472E-17 -0.9733768863E+00
  0.7530110648E+00  0.1000000000E+01  0.2570463033E+00  0.2343783510E+01 -0.4667558295E-17 -0.7490428509E+00  0.7181077491E+15  0.2370607542E+01 -0.4366138401E-17 -0.7179424229E+00
  0.6570463033E+00  0.1000000000E+01  0.2570463033E+00  0.1781171707E+01 -0.5859464428E-18 -0.6862395201E+00  0.7181077491E+15  0.1803509842E+01 -0.1206453935E-17 -0.6475476628E+00
  0.5429536967E+00  0.1000000000E+01  0.2570463033E+00  0.1319829332E+01  0.4822351311E-17 -0.4191841591E+00  0.7181077491E+15  0.1353872405E+01  0.5376081682E-17 -0.3728947549E+00
  0.4469889352E+00  0.1000000000E+01  0.2570463033E+00  0.8999085498E+00  0.5850801907E-17 -0.4950825260E+00  0.7181077491E+15  0.9481972023E+00  0.6160959604E-17 -0.4674253648E+00
  0.4000000000E+00  0.1000000000E+01  0.2570463033E+00  0.8310746987E+00  0.5385116898E-17 -0.4290712648E+00  0.7181077491E+15  0.8744594782E+00  0.5429274941E-17 -0.4146656185E+00
  0.8000000000E+00  0.1000000000E+01  0.3530110648E+00  0.2914255447E+01  0.4537564261E-17 -0.1587236972E+01  0.7181077491E+15  0.2943243212E+01  0.4485565340E-17 -0.1581374154E+01
  0.7530110648E+00  0.1000000000E+01  0.3530110648E+00  0.2756244318E+01  0.8324755177E-17 -0.1356022308E+01  0.7181077491E+15  0.2781590740E+01  0.9723065627E-17 -0.1352778616E+01
  0.6570463033E+00  0.1000000000E+01  0.3530110648E+00  0.2126471043E+01 -0.3107071955E-18 -0.1156333131E+01  0.7181077491E+15  0.2124913824E+01 -0.5095330712E-18 -0.1137192781E+01
  0.5429536967E+00  0.1000000000E+01  0.3530110648E+00  0.1536623323E+01  0.1829619491E-18 -0.8221744791E+00  0.7181077491E+15  0.1575785343E+01 -0.2581445162E-17 -0.7776326775E+00
  0.4469889352E+00  0.1000000000E+01  0.3530110648E+00  0.9914370822E+00  0.4819042206E-17 -0.8172162803E+00  0.7181077491E+15  0.1082762529E+01  0.4953712600E-17 -0.8049878797E+00
  0.4000000000E+00  0.1000000000E+01  0.3530110648E+00  0.9248813863E+00  0.5571734774E-17 -0.7477132159E+00  0.7181077491E+15  0.9945981092E+00  0.5511683612E-17 -0.7552506269E+00
  0.8000000000E+00  0.1000000000E+01  0.4000000000E+00  0.3074488791E+01 -0.2863174778E-17 -0.1947386520E+01  0.7181077491E+15  0.3104705719E+01 -0.2863032246E-17 -0.1970494816E+01
  0.7530110648E+00  0.1000000000E+01  0.4000000000E+00  0.2782431746E+01 -0.5895521944E-19 -0.1643213544E+01  0.7181077491E+15  0.2811780817E+01  0.1775273495E-18 -0.1672242808E+01
  0.6570463033E+00  0.1000000000E+01  0.4000000000E+00  0.2193505088E+01  0.2426621698E-17 -0.1391365336E+01  0.7181077491E+15  0.2179840713E+01  0.2373036187E-17 -0.1423221677E+01
  0.5429536967E+00  0.1000000000E+01  0.4000000000E+00  0.1569845996E+01  0.9428500655E-17 -0.1035226959E+01  0.7181077491E+15  0.1609919861E+01  0.1006553397E-16 -0.1049296017E+01
  0.4469889352E+00  0.1000000000E+01  0.4000000000E+00  0.1084102482E+01  0.7188464296E-17 -0.9893935731E+00  0.7181077491E+15  0.1195673655E+01  0.9850197041E-17 -0.1021597824E+01
  0.4000000000E+00  0.1000000000E+01  0.4000000000E+00  0.9211442675E+00  0.7299326919E-17 -0.9081268921E+00  0.7181077491E+15  0.9935365282E+00  0.7303376661E-17 -0.9447724138E+00
ZONE I=6, J=6, K=1, F=POINT
  0.1200000000E+01  0.1000000000E+01  0.0000000000E+00 -0.3831693998E-01  0.5290060485E-19  0.3630601601E-01  0.7181077491E+15 -0.2488307407E-01  0.5812131138E-19  0.3591343781E-01
  0.1153011065E+01  0.1000000000E+01  0.0000000000E+00 -0.1090746983E-01 -0.5270038893E-18 -0.9728973218E-02  0.7181077491E+15  0.2306796573E-02  0.7902111565E-19 -0.9864245190E-02
  0.1057046303E+01  0.1000000000E+01  0.0000000000E+00 -0.2500434834E-02 -0.9939999136E-19  0.5936808470E-02  0.7181077491E+15  0.1001541393E-01  0.2228358567E-18  0.5804353468E-02
  0.9429536967E+00  0.1000000000E+01  0.0000000000E+00 -0.5500980509E-02 -0.8928108705E-20 -0.8176521359E-02  0.7181077491E+15  0.5888126933E-02 -0.1358488557E-20 -0.8287787080E-02
  0.8469889352E+00  0.1000000000E+01  0.0000000000E+00  0.1150740701E-02 -0.2735889325E-19  0.5534636643E-02  0.7181077491E+15  0.1160600557E-01 -0.2997957015E-19  0.5367519463E-02
  0.8000000000E+00  0.1000000000E+01  0.0000000000E+00 -0.2882140757E-01 -0.1005752132E-18 -0.1111531806E-01  0.7181077491E+15 -0.1900872296E-01 -0.9770222743E-19 -0.1097108334E-01
  0.1200000000E+01  0.1000000000E+01  0.4698893521E-01  0.2316333619E+01 -0.4066630298E-16 -0.2140336934E+00  0.7181077491E+15  0.2345084694E+01 -0.4194291447E-16 -0.1826219384E+00
  0.1153011065E+01  0.1000000000E+01  0.4698893521E-01  0.1619546738E+01 -0.2474304493E-16 -0.6502495104E-01  0.7181077491E+15  0.1647274147E+01 -0.2565699033E-16 -0.3488566746E-01
  0.1057046303E+01  0.1000000000E+01  0.4698893521E-01  0.1469485378E+01 -0.1167597722E-16 -0.9035897033E-01  0.7181077491E+15  0.1497701850E+01 -0.1129459544E-16 -0.6252917048E-01
  0.9429536967E+00  0.1000000000E+01  0.4698893521E-01  0.8410177244E+00 -0.1291000483E-16 -0.6539016899E-01  0.7181077491E+15  0.8688915316E+00 -0.1366032312E-16 -0.4263774184E-01
  0.8469889352E+00  0.1000000000E+01  0.4698893521E-01  0.7246596609E+00 -0.2566717942E-16 -0.5414969697E-01  0.7181077491E+15  0.7508322747E+00 -0.2684819497E-16 -0.3428847702E-01
  0.8000000000E+00  0.1000000000E+01  0.4698893521E-01  0.3272784110E+00 -0.2164925686E-16  0.3687671925E-01  0.7181077491E+15  0.3535017584E+00 -0.2195914884E-16  0.5629656805E-01
  0.1200000000E+01  0.1000000000E+01  0.1429536967E+00  0.5482417251E+01 -0.5751992026E-16 -0.6608765989E+00  0.7181077491E+15  0.5518451848E+01 -0.5833786015E-16 -0.6178701345E+00
  0.1153011065E+01  0.1000000000E+01  0.1429536967E+00  0.4013675789E+01 -0.6906447277E-16 -0.8680174142E+00  0.7181077491E+15  0.4044522520E+01 -0.6763720397E-16 -0.8260560279E+00
  0.1057046303E+01  0.1000000000E+01  0.1429536967E+00  0.3586876823E+01 -0.3573601737E-16 -0.6452697588E+00  0.7181077491E+15  0.3617869889E+01 -0.3579377925E-16 -0.6053364871E+00
  0.9429536967E+00  0.1000000000E+01  0.1429536967E+00  0.2272629274E+01 -0.3119636809E-16 -0.7408972954E+00  0.7181077491E+15  0.2304805308E+01 -0.3118149047E-16 -0.7027924663E+00
  0.8469889352E+00  0.1000000000E+01  0.1429536967E+00  0.1945317140E+01 -0.4672968547E-16 -0.3850344137E+00  0.7181077491E+15  0.1974012091E+01 -0.4755227624E-16 -0.3499154762E+00
  0.8000000000E+00  0.1000000000E+01  0.1429536967E+00  0.1205585733E+01 -0.5360821714E-16 -0.3666431346E+00  0.7181077491E+15  0.1233355151E+01 -0.5287364257E-16 -0.3320682015E+00
  0.1200000000E+01  0.1000000000E+01  0.2570463033E+00  0.6048383123E+01 -0.8712702075E-17 -0.1805423867E+01  0.7181077491E+15  0.6079338923E+01 -0.8620372357E-17 -0.1773625355E+01
  0.1153011065E+01  0.1000000000E+01  0.2570463033E+00  0.5488386342E+01 -0.3117971615E-16 -0.2063842630E+01  0.7181077491E+15  0.5521154778E+01 -0.3419837574E-16 -0.2032784606E+01
  0.1057046303E+01  0.1000000000E+01  0.2570463033E+00  0.4591404976E+01 -0.2926819342E-16 -0.1677327629E+01  0.7181077491E+15  0.4625328478E+01 -0.2921773251E-16 -0.1650163506E+01
  0.9429536967E+00  0.1000000000E+01  0.2570463033E+00  0.3544674488E+01 -0.2425271062E-16 -0.1720357247E+01  0.7181077491E+15  0.3576048352E+01 -0.2592932110E-16 -0.1695321499E+01
  0.8469889352E+00  0.1000000000E+01  0.2570463033E+00  0.2925833180E+01 -0.1055055179E-16 -0.1080284350E+01  0.7181077491E+15  0.2953744816E+01 -0.9268758168E-17 -0.1050427644E+01
  0.8000000000E+00  0.1000000000E+01  0.2570463033E+00  0.2482765060E+01 -0.9246809359E-17 -0.1007243749E+01  0.7181077491E+15  0.2509474892E+01 -0.9184692113E-17 -0.9756180958E+00
  0.1200000000E+01  0.1000000000E+01  0.3530110648E+00  0.6565215746E+01  0.2607498038E-16 -0.2979016930E+01  0.7181077491E+15  0.6596146240E+01  0.2611390779E-16 -0.2953357587E+01
  0.1153011065E+01  0.1000000000E+01  0.3530110648E+00  0.5801385952E+01  0.1024382064E-16 -0.2937103347E+01  0.7181077491E+15  0.5836739277E+01  0.9797538620E-17 -0.2912410833E+01
  0.1057046303E+01  0.1000000000E+01  0.3530110648E+00  0.4998262858E+01 -0.9063974453E-17 -0.2601959546E+01  0.7181077491E+15  0.5040714892E+01 -0.9356935170E-17 -0.2585118824E+01
  0.9429536967E+00  0.1000000000E+01  0.3530110648E+00  0.3959369301E+01 -0.1182876071E-16 -0.2402707077E+01  0.7181077491E+15  0.3990957273E+01 -0.1291173268E-16 -0.2397774396E+01
  0.8469889352E+00  0.1000000000E+01  0.3530110648E+00  0.3397422183E+01 -0.4786279892E-18 -0.1781355381E+01  0.7181077491E+15  0.3418922620E+01  0.8580110674E-19 -0.1776384686E+01
  0.8000000000E+00  0.1000000000E+01  0.3530110648E+00  0.2866081057E+01  0.4618707955E-17 -0.1587569411E+01  0.7181077491E+15  0.2896455142E+01  0.4575473859E-17 -0.1581728779E+01
  0.1200000000E+01  0.1000000000E+01  0.4000000000E+00  0.6381573078E+01  0.2846669092E-16 -0.3314592479E+01  0.7181077491E+15  0.6412239761E+01  0.2847996461E-16 -0.3292866552E+01
  0.1153011065E+01  0.1000000000E+01  0.4000000000E+00  0.5975269300E+01  0.2032149405E-16 -0.3472225503E+01  0.7181077491E+15  0.6012303439E+01  0.2035494054E-16 -0.3453617129E+01
  0.1057046303E+01  0.1000000000E+01  0.4000000000E+00  0.5023300015E+01 -0.9437843241E-18 -0.3039078367E+01  0.7181077491E+15  0.5071369502E+01 -0.8089226256E-18 -0.3028659587E+01
  0.9429536967E+00  0.1000000000E+01  0.4000000000E+00  0.4096499837E+01 -0.1257314873E-16 -0.2823024958E+01  0.7181077491E+15  0.4132875145E+01 -0.1363571395E-16 -0.2827969466E+01
  0.8469889352E+00  0.1000000000E+01  0.4000000000E+00  0.3413142061E+01 -0.8596841954E-17 -0.2113107614E+01  0.7181077491E+15  0.3436211860E+01 -0.8228020204E-17 -0.2133190855E+01
  0.8000000000E+00  0.1000000000E+01  0.4000000000E+00  0.3069346653E+01 -0.2831282404E-17 -0.1950966825E+01  0.7181077491E+15  0.3099553516E+01 -0.2836144231E-17 -0.1973496690E+01
ZONE I=6, J=6, K=1, F=POINT
  0.1600000000E+01  0.1000000000E+01  0.0000000000E+00  0.1183869043E+00 -0.9562886592E-18 -0.7020102602E-01  0.7181077491E+15  0.1341072206E+00 -0.1066416274E-17 -0.7045104491E-01
  0.1553011065E+01  0.1000000000E+01  0.0000000000E+00 -0.8455711837E-03 -0.7583947917E-18  0.4551231140E-01  0.7181077491E+15  0.1467656927E-01 -0.1530448449E-17  0.4528899602E-01
  0.1457046303E+01  0.1000000000E+01  0.0000000000E+00 -0.1700643694E-01  0.1195299969E-18 -0.3100649153E-02  0.7181077491E+15 -0.2231801181E-02 -0.2406347902E-18 -0.3122358276E-02
  0.1342953697E+01  0.1000000000E+01  0.0000000000E+00 -0.3050803377E-02 -0.6074435811E-19  0.2984414473E-01  0.7181077491E+15  0.1119780387E-01  0.7305254140E-18  0.2962454741E-01
  0.1246988935E+01  0.1000000000E+01  0.0000000000E+00 -0.1481685671E-01  0.1249889469E-18 -0.8155927109E-02  0.7181077491E+15 -0.1226720665E-02  0.1889533672E-18 -0.8242051836E-02
  0.1200000000E+01  0.1000000000E+01  0.0000000000E+00  0.5105775958E-01  0.5459484240E-19  0.3629799684E-01  0.7181077491E+15  0.6452121450E-01  0.6311787000E-19  0.3594193066E-01
  0.1600000000E+01  0.1000000000E+01  0.4698893521E-01  0.2947737175E+01 -0.8685074977E-16  0.2370870078E+00  0.7181077491E+15  0.2970962299E+01 -0.8739823748E-16  0.2789995910E+00
  0.1553011065E+01  0.1000000000E+01  0.4698893521E-01  0.3485307458E+01 -0.4512412107E-16 -0.2685513561E+00  0.7181077491E+15  0.3509617963E+01 -0.4442426127E-16 -0.2270832349E+00
  0.1457046303E+01  0.1000000000E+01  0.4698893521E-01  0.2573043607E+01 -0.3749191406E-17 -0.9420291308E-01  0.7181077491E+15  0.2599476473E+01 -0.4495654974E-17 -0.5341457555E-01
  0.1342953697E+01  0.1000000000E+01  0.4698893521E-01  0.2616156500E+01  0.2770838867E-16 -0.7338558066E-01  0.7181077491E+15  0.2643777116E+01  0.2796979440E-16 -0.3780458632E-01
  0.1246988935E+01  0.1000000000E+01  0.4698893521E-01  0.2049320422E+01 -0.8891247744E-17 -0.4276469638E-01  0.7181077491E+15  0.2076607100E+01 -0.7740572108E-17 -0.1040438867E-01
  0.1200000000E+01  0.1000000000E+01  0.4698893521E-01  0.2415300818E+01 -0.4488580136E-16 -0.2197276918E+00  0.7181077491E+15  0.2442091734E+01 -0.4615002269E-16 -0.1879310553E+00
  0.1600000000E+01  0.1000000000E+01  0.1429536967E+00  0.6413920713E+01 -0.2724323068E-15 -0.1731667393E+01  0.7181077491E+15  0.6424566096E+01 -0.2708385006E-15 -0.1664179982E+01
  0.1553011065E+01  0.1000000000E+01  0.1429536967E+00  0.8187541417E+01 -0.1427371447E-15 -0.8909231922E+00  0.7181077491E+15  0.8215626683E+01 -0.1442821177E-15 -0.8263293762E+00
  0.1457046303E+01  0.1000000000E+01  0.1429536967E+00  0.6250959092E+01  0.2569292465E-16 -0.8870350569E+00  0.7181077491E+15  0.6285049054E+01  0.2768343020E-16 -0.8338097951E+00
  0.1342953697E+01  0.1000000000E+01  0.1429536967E+00  0.6289688862E+01  0.9626267882E-16 -0.2110999518E+00  0.7181077491E+15  0.6321915048E+01  0.9748706329E-16 -0.1664731166E+00
  0.1246988935E+01  0.1000000000E+01  0.1429536967E+00  0.4940557702E+01  0.2827155156E-16 -0.7888112146E+00  0.7181077491E+15  0.4969904887E+01  0.2597437695E-16 -0.7449269825E+00
  0.1200000000E+01  0.1000000000E+01  0.1429536967E+00  0.5649059304E+01 -0.6169037112E-16 -0.6552655809E+00  0.7181077491E+15  0.5673917639E+01 -0.6238511968E-16 -0.6130440963E+00
  0.1600000000E+01  0.1000000000E+01  0.2570463033E+00  0.1154631168E+02  0.9914330058E-16 -0.3391836648E+01  0.7181077491E+15  0.1158478274E+02  0.9918107550E-16 -0.3352477334E+01
  0.1553011065E+01  0.1000000000E+01  0.2570463033E+00  0.1056201230E+02  0.1204748962E-15 -0.2307447870E+01  0.7181077491E+15  0.1060601189E+02  0.1210310847E-15 -0.2266339535E+01
  0.1457046303E+01  0.1000000000E+01  0.2570463033E+00  0.9332567410E+01  0.1740851921E-15 -0.2228481313E+01  0.7181077491E+15  0.9379270610E+01  0.1766539402E-15 -0.2195942191E+01
  0.1342953697E+01  0.1000000000E+01  0.2570463033E+00  0.7785638577E+01  0.1224861045E-15 -0.1200204485E+01  0.7181077491E+15  0.7821070798E+01  0.1244773068E-15 -0.1172071372E+01
  0.1246988935E+01  0.1000000000E+01  0.2570463033E+00  0.6543335865E+01  0.3524068299E-16 -0.2019310440E+01  0.7181077491E+15  0.6571066123E+01  0.3703998814E-16 -0.1988652334E+01
  0.1200000000E+01  0.1000000000E+01  0.2570463033E+00  0.6088714990E+01 -0.8935039474E-17 -0.1795482709E+01  0.7181077491E+15  0.6119471166E+01 -0.8840038057E-17 -0.1766663724E+01
  0.1600000000E+01  0.1000000000E+01  0.3530110648E+00  0.1021773162E+02  0.2020799395E-15 -0.3712133890E+01  0.7181077491E+15  0.1024793725E+02  0.2018699134E-15 -0.3690613345E+01
  0.1553011065E+01  0.1000000000E+01  0.3530110648E+00  0.1050215576E+02  0.2018448517E-15 -0.3655692572E+01  0.7181077491E+15  0.1054688923E+02  0.2021324199E-15 -0.3632543697E+01
  0.1457046303E+01  0.1000000000E+01  0.3530110648E+00  0.9422738174E+01  0.1825213565E-15 -0.3340137171E+01  0.7181077491E+15  0.9471653480E+01  0.1850350153E-15 -0.3312902437E+01
  0.1342953697E+01  0.1000000000E+01  0.3530110648E+00  0.8212816715E+01  0.1352778090E-15 -0.2707548464E+01  0.7181077491E+15  0.8248865842E+01  0.1361474183E-15 -0.2678722671E+01
  0.1246988935E+01  0.1000000000E+01  0.3530110648E+00  0.6794560327E+01  0.5717879807E-16 -0.3003835676E+01  0.7181077491E+15  0.6821733856E+01  0.5617365777E-16 -0.2976887380E+01
  0.1200000000E+01  0.1000000000E+01  0.3530110648E+00  0.6642675636E+01  0.2618516920E-16 -0.2979249693E+01  0.7181077491E+15  0.6669589906E+01  0.2619878804E-16 -0.2953371782E+01
  0.1600000000E+01  0.1000000000E+01  0.4000000000E+00  0.1047866668E+02  0.2021167629E-15 -0.4383158050E+01  0.7181077491E+15  0.1051029996E+02  0.2020187851E-15 -0.4367489531E+01
  0.1553011065E+01  0.1000000000E+01  0.4000000000E+00  0.9912216879E+01  0.2130541446E-15 -0.3648711109E+01  0.7181077491E+15  0.9956128477E+01  0.2124985277E-15 -0.3625601190E+01
  0.1457046303E+01  0.1000000000E+01  0.4000000000E+00  0.9410947251E+01  0.1759879085E-15 -0.3862694051E+01  0.7181077491E+15  0.9456771730E+01  0.1759204962E-15 -0.3834008841E+01
  0.1342953697E+01  0.1000000000E+01  0.4000000000E+00  0.8052595419E+01  0.1361260736E-15 -0.3119779894E+01  0.7181077491E+15  0.8090564896E+01  0.1385636746E-15 -0.3089383672E+01
  0.1246988935E+01  0.1000000000E+01  0.4000000000E+00  0.6999112850E+01  0.5258713571E-16 -0.3589094077E+01  0.7181077491E+15  0.7028329788E+01  0.5187719137E-16 -0.3562111448E+01
  0.1200000000E+01  0.1000000000E+01  0.4000000000E+00  0.6353927108E+01  0.2870209960E-16 -0.3302091679E+01  0.7181077491E+15  0.6386897979E+01  0.2870292431E-16 -0.3283316728E+01
ZONE I=6, J=6, K=1, F=POINT
  0.2000000000E+01  0.1000000000E+01  0.0000000000E+00  0.2399920753E+01  0.7076115526E-19  0.2123221525E+02  0.7181077490E+15  0.2429248538E+01  0.9437959211E-19  0.2215448884E+02
  0.1953011065E+01  0.1000000000E+01  0.0000000000E+00  0.1277046873E+01 -0.3701911810E-16 -0.1401995906E+00  0.7181077491E+15  0.1296582749E+01 -0.3611094695E-16 -0.1517383102E+00
  0.1857046303E+01  0.1000000000E+01  0.0000000000E+00 -0.3238293616E+00 -0.1974444684E-16  0.1527341507E+00  0.7181077491E+15 -0.3054299343E+00 -0.1915973730E-16  0.1508938454E+00
  0.1742953697E+01  0.1000000000E+01  0.0000000000E+00  0.1197142218E+00  0.1583363101E-18 -0.3727474088E-01  0.7181077491E+15  0.1377120441E+00  0.9487969805E-19 -0.3687757192E-01
  0.1646988935E+01  0.1000000000E+01  0.0000000000E+00 -0.1420386729E+00  0.3393049380E-18  0.6093455504E-01  0.7181077491E+15 -0.1227276758E+00  0.2497778439E-18  0.5985797752E-01
  0.1600000000E+01  0.1000000000E+01  0.0000000000E+00  0.7708313481E-01 -0.1033042630E-17 -0.8224088218E-01  0.7181077491E+15  0.9198984476E-01 -0.1147095304E-17 -0.8114234064E-01
  0.2000000000E+01  0.1000000000E+01  0.4698893521E-01 -0.1578907845E-01  0.7466883991E-18  0.4846742951E+02  0.7181077491E+15 -0.5676521202E-01  0.6798150984E-18  0.4865868646E+02
  0.1953011065E+01  0.1000000000E+01  0.4698893521E-01  0.1090146542E+02  0.1345447574E-15  0.1411896378E+01  0.7181077491E+15  0.1090750320E+02  0.1334969801E-15  0.1447137984E+01
  0.1857046303E+01  0.1000000000E+01  0.4698893521E-01  0.1153012629E+02  0.2810815623E-15 -0.1942693629E+01  0.7181077491E+15  0.1155227995E+02  0.2828335614E-15 -0.1917605489E+01
  0.1742953697E+01  0.1000000000E+01  0.4698893521E-01  0.5627691979E+01 -0.4381528650E-16 -0.6758985379E+00  0.7181077491E+15  0.5651983816E+01 -0.4354130769E-16 -0.6386425428E+00
  0.1646988935E+01  0.1000000000E+01  0.4698893521E-01  0.4369924569E+01 -0.1188336629E-15 -0.6302187938E+00  0.7181077491E+15  0.4396905295E+01 -0.1205069097E-15 -0.5855262518E+00
  0.1600000000E+01  0.1000000000E+01  0.4698893521E-01  0.2782984870E+01 -0.8400519556E-16  0.2228813744E+00  0.7181077491E+15  0.2814863715E+01 -0.8435611747E-16  0.2594983480E+00
  0.2000000000E+01  0.1000000000E+01  0.1429536967E+00 -0.2813502801E+00  0.2777096373E-17  0.5048444468E+02  0.7181077491E+15 -0.2573894049E+00  0.2814272604E-17  0.5044261226E+02
  0.1953011065E+01  0.1000000000E+01  0.1429536967E+00  0.2719580028E+01 -0.5157249434E-15  0.1627421924E+02  0.7181077491E+15  0.2725146899E+01 -0.5138716335E-15  0.1633673195E+02
  0.1857046303E+01  0.1000000000E+01  0.1429536967E+00  0.1258090554E+02 -0.2617031490E-15 -0.3750384921E+01  0.7181077491E+15  0.1258498210E+02 -0.2621763197E-15 -0.3712656290E+01
  0.1742953697E+01  0.1000000000E+01  0.1429536967E+00  0.9859703605E+01 -0.4461245721E-16 -0.4096436952E+01  0.7181077491E+15  0.9865181364E+01 -0.4451637826E-16 -0.4044812356E+01
  0.1646988935E+01  0.1000000000E+01  0.1429536967E+00  0.9297945851E+01 -0.1644808480E-15 -0.2011310658E+01  0.7181077491E+15  0.9324584703E+01 -0.1644445888E-15 -0.1942429335E+01
  0.1600000000E+01  0.1000000000E+01  0.1429536967E+00  0.6041960263E+01 -0.2891196909E-15 -0.1731987497E+01  0.7181077491E+15  0.6092937648E+01 -0.2878716601E-15 -0.1668866535E+01
  0.2000000000E+01  0.1000000000E+01  0.2570463033E+00  0.1877038862E-01  0.1119748613E-17  0.4985581336E+02  0.7181077491E+15  0.1800750369E-01  0.1105218250E-17  0.4988154759E+02