TITLE = "Generated from ../MESH/Convergence_0000000000.hmesh and Convergence_0000008100.hsol"
VARIABLES = "x","y","z","veloT_x","veloT_y","veloT_z","slr_4","velo_x","velo_y","velo_z"
ZONE I=6, J=6, K=1, F=POINT
  0.4000000000E+00  0.1000000000E+01  0.0000000000E+00 -0.1956855455E-01  0.3249586409E-19  0.7655069624E-02  0.5636899765E+15 -0.3941010580E-01  0.1892567356E-19  0.7898594614E-02
  0.3530110648E+00  0.1000000000E+01  0.0000000000E+00 -0.1039500977E-01  0.1678950090E-19 -0.3218892939E-03  0.5636899765E+15 -0.2881091167E-01  0.1602564655E-19  0.1390898988E-03
  0.2570463033E+00  0.1000000000E+01  0.0000000000E+00 -0.8240097108E-02  0.5243922876E-20  0.2396708839E-02  0.5636899765E+15 -0.2125189240E-01  0.5007119118E-20  0.3067654202E-02
  0.1429536967E+00  0.1000000000E+01  0.0000000000E+00 -0.8781979518E-02  0.1223317831E-20 -0.8467821390E-03  0.5636899765E+15 -0.1969129721E-01  0.1803889607E-20 -0.1048243503E-02
  0.4698893521E-01  0.1000000000E+01  0.0000000000E+00 -0.3455678326E-02 -0.1228889688E-20  0.2017616453E-02  0.5636899765E+15 -0.1214454003E-01 -0.3045361325E-20  0.3772867498E-02
  0.0000000000E+00  0.1000000000E+01  0.0000000000E+00 -0.7628448705E-02  0.4731285191E-23  0.2257845073E-02  0.5636899765E+15 -0.9051152093E-02  0.3196053183E-22  0.3628846385E-02
  0.4000000000E+00  0.1000000000E+01  0.4698893521E-01  0.3089922794E+00  0.3314318969E-17 -0.1839868001E+00  0.5636899765E+15  0.2251602418E+00  0.3791989252E-17 -0.1750229246E+00
  0.3530110648E+00  0.1000000000E+01  0.4698893521E-01  0.1534526786E+00  0.3096506090E-17 -0.1350490543E+00  0.5636899765E+15  0.7841033510E-01  0.3866488645E-17 -0.1150036162E+00
  0.2570463033E+00  0.1000000000E+01  0.4698893521E-01  0.1077705741E+00  0.1223984426E-17 -0.1144855860E+00  0.5636899765E+15  0.5225269434E-01  0.1338965478E-17 -0.8596699851E-01
  0.1429536967E+00  0.1000000000E+01  0.4698893521E-01  0.5487556141E-02  0.4103696508E-18 -0.7223882307E-01  0.5636899765E+15 -0.4304067187E-01  0.3040023739E-18 -0.3043360097E-01
  0.4698893521E-01  0.1000000000E+01  0.4698893521E-01 -0.1713275045E-03  0.1327185346E-18 -0.3144446895E-01  0.5636899765E+15 -0.3352779408E-01  0.8027131600E-19  0.7975066200E-02
  0.0000000000E+00  0.1000000000E+01  0.4698893521E-01 -0.1807262407E-01  0.8741694521E-21  0.7046137730E-02  0.5636899765E+15 -0.1970801363E-01  0.1624696526E-20  0.1583075900E-01
  0.4000000000E+00  0.1000000000E+01  0.1429536967E+00  0.6746820996E+00  0.1105515803E-16 -0.3111499270E+00  0.5636899765E+15  0.5641130732E+00  0.9561586702E-17 -0.3210563292E+00
  0.3530110648E+00  0.1000000000E+01  0.1429536967E+00  0.3649027382E+00  0.8093688880E-17 -0.3342531397E+00  0.5636899765E+15  0.2794569969E+00  0.8181112196E-17 -0.3385886338E+00
  0.2570463033E+00  0.1000000000E+01  0.1429536967E+00  0.2309486240E+00  0.3147942364E-17 -0.2355184824E+00  0.5636899765E+15  0.1566294596E+00  0.3136489705E-17 -0.2230356930E+00
  0.1429536967E+00  0.1000000000E+01  0.1429536967E+00 -0.2355943769E-02  0.1304061872E-17 -0.1946925731E+00  0.5636899765E+15 -0.6259894942E-01  0.1326239827E-17 -0.1551700720E+00
  0.4698893521E-01  0.1000000000E+01  0.1429536967E+00 -0.5233816066E-01  0.4907026135E-18 -0.3108592665E-01  0.5636899765E+15 -0.7388760375E-01  0.2967843598E-18  0.9903039643E-02
  0.0000000000E+00  0.1000000000E+01  0.1429536967E+00 -0.2173504984E-01 -0.2770352237E-21  0.5599609414E-02  0.5636899765E+15 -0.2100955793E-01  0.3154678665E-20  0.1406438991E-01
  0.4000000000E+00  0.1000000000E+01  0.2570463033E+00  0.8686004994E+00  0.5453414946E-17 -0.5945211210E+00  0.5636899765E+15  0.7038535483E+00  0.5308902596E-17 -0.6341633181E+00
  0.3530110648E+00  0.1000000000E+01  0.2570463033E+00  0.5944826402E+00  0.2562733532E-17 -0.6311054759E+00  0.5636899765E+15  0.4798923233E+00  0.2470103870E-17 -0.6374805745E+00
  0.2570463033E+00  0.1000000000E+01  0.2570463033E+00  0.3182488940E+00  0.3110485417E-17 -0.4587185749E+00  0.5636899765E+15  0.2198717020E+00  0.3101807395E-17 -0.4428957156E+00
  0.1429536967E+00  0.1000000000E+01  0.2570463033E+00  0.7342685181E-02  0.2116384143E-17 -0.3589654778E+00  0.5636899765E+15 -0.6600213536E-01  0.2113762407E-17 -0.3324615234E+00
  0.4698893521E-01  0.1000000000E+01  0.2570463033E+00 -0.8807654775E-01  0.1170660787E-17 -0.5833650868E-01  0.5636899765E+15 -0.1029170160E+00  0.1488120403E-17 -0.3383924826E-01
  0.0000000000E+00  0.1000000000E+01  0.2570463033E+00 -0.1450990345E-01 -0.5314472148E-20  0.6887473050E-02  0.5636899765E+15 -0.1400261448E-01 -0.8676394117E-20  0.9398463001E-02
  0.4000000000E+00  0.1000000000E+01  0.3530110648E+00  0.1001657763E+01  0.5279115033E-17 -0.1054314560E+01  0.5636899765E+15  0.7151011203E+00  0.5481645987E-17 -0.1035750964E+01
  0.3530110648E+00  0.1000000000E+01  0.3530110648E+00  0.6722328852E+00  0.4591816302E-17 -0.1019913514E+01  0.5636899765E+15  0.5129105682E+00  0.4648852772E-17 -0.9751584671E+00
  0.2570463033E+00  0.1000000000E+01  0.3530110648E+00  0.3253445631E+00  0.4628645611E-17 -0.7596541821E+00  0.5636899765E+15  0.2257394061E+00  0.3976488617E-17 -0.7151181904E+00
  0.1429536967E+00  0.1000000000E+01  0.3530110648E+00 -0.3973138962E-01  0.2859220494E-17 -0.5324848053E+00  0.5636899765E+15 -0.1097911718E+00  0.2550287068E-17 -0.4974974836E+00
  0.4698893521E-01  0.1000000000E+01  0.3530110648E+00 -0.1288681421E+00  0.6687770540E-18 -0.1187794815E+00  0.5636899765E+15 -0.1312661500E+00  0.4956296527E-18 -0.9932474049E-01
  0.0000000000E+00  0.1000000000E+01  0.3530110648E+00 -0.1470830596E-01  0.2279115512E-20  0.9536239389E-02  0.5636899765E+15 -0.1382431977E-01  0.2683968789E-20  0.7024646321E-02
  0.4000000000E+00  0.1000000000E+01  0.4000000000E+00  0.9797613584E+00  0.6756331183E-17 -0.1353509693E+01  0.5636899765E+15  0.6889886215E+00  0.6651207972E-17 -0.1244013240E+01
  0.3530110648E+00  0.1000000000E+01  0.4000000000E+00  0.6955443125E+00  0.6303311572E-17 -0.1246328662E+01  0.5636899765E+15  0.5436438436E+00  0.6340757697E-17 -0.1180976656E+01
  0.2570463033E+00  0.1000000000E+01  0.4000000000E+00  0.3108613919E+00  0.1583722944E-17 -0.9082052322E+00  0.5636899765E+15  0.2168808466E+00  0.1547050218E-17 -0.8776020647E+00
  0.1429536967E+00  0.1000000000E+01  0.4000000000E+00 -0.6253078859E-01  0.1596332907E-17 -0.6207101424E+00  0.5636899765E+15 -0.1271621927E+00  0.1921712035E-17 -0.5993818688E+00
  0.4698893521E-01  0.1000000000E+01  0.4000000000E+00 -0.1585353465E+00  0.5516178446E-18 -0.1460717049E+00  0.5636899765E+15 -0.1520434453E+00  0.5422339439E-18 -0.1406919442E+00
  0.0000000000E+00  0.1000000000E+01  0.4000000000E+00 -0.7207657583E-02  0.9508940540E-20  0.8412735107E-02  0.5636899765E+15 -0.6099287156E-02  0.1143719099E-19  0.1425086557E-02
ZONE I=6, J=6, K=1, F=POINT
  0.8000000000E+00  0.1000000000E+01  0.0000000000E+00  0.9808793701E-02 -0.5645224967E-19 -0.1162402894E-01  0.5636899765E+15 -0.3814257814E-01 -0.9055433001E-19 -0.1091401637E-01
  0.7530110648E+00  0.1000000000E+01  0.0000000000E+00 -0.7691075149E-02 -0.7782356723E-19  0.5868018744E-02  0.5636899765E+15 -0.5185683994E-01 -0.1119347120E-17  0.6773118487E-02
  0.6570463033E+00  0.1000000000E+01  0.0000000000E+00 -0.1147579257E-01 -0.1357613175E-18  0.3243483570E-03  0.5636899765E+15 -0.4838646149E-01 -0.6078101851E-18  0.1659662718E-02
  0.5429536967E+00  0.1000000000E+01  0.0000000000E+00 -0.8880012692E-02 -0.2359546613E-18  0.7255315506E-02  0.5636899765E+15 -0.3811795658E-01 -0.9919643016E-18  0.8872480243E-02
  0.4469889352E+00  0.1000000000E+01  0.0000000000E+00 -0.9983118444E-02 -0.2822721170E-18  0.8093006657E-03  0.5636899765E+15 -0.3309636262E-01 -0.9908784125E-18  0.2008493360E-02
  0.4000000000E+00  0.1000000000E+01  0.0000000000E+00  0.7052760482E-02  0.3639667684E-19  0.7346923262E-02  0.5636899765E+15 -0.1289931848E-01  0.2314062713E-19  0.7603735505E-02
  0.8000000000E+00  0.1000000000E+01  0.4698893521E-01  0.5285310302E+00 -0.2369298564E-16 -0.1446861547E+00  0.5636899765E+15  0.3727478955E+00 -0.2186716554E-16 -0.1648775015E+00
  0.7530110648E+00  0.1000000000E+01  0.4698893521E-01  0.6959617045E+00 -0.2597229112E-16 -0.2067660816E+00  0.5636899765E+15  0.5541968849E+00 -0.1787112664E-16 -0.2273008393E+00
  0.6570463033E+00  0.1000000000E+01  0.4698893521E-01  0.4310426263E+00 -0.3268850682E-17 -0.1678036651E+00  0.5636899765E+15  0.3106233956E+00 -0.4781941422E-17 -0.2047564698E+00
  0.5429536967E+00  0.1000000000E+01  0.4698893521E-01  0.4221424414E+00  0.5599437914E-17 -0.1508970068E+00  0.5636899765E+15  0.3155454673E+00  0.3760192968E-17 -0.1914418573E+00
  0.4469889352E+00  0.1000000000E+01  0.4698893521E-01  0.2629573748E+00  0.4358258698E-17 -0.1430664692E+00  0.5636899765E+15  0.1681461691E+00  0.4945869149E-17 -0.1539840082E+00
  0.4000000000E+00  0.1000000000E+01  0.4698893521E-01  0.3510231502E+00  0.3066765908E-17 -0.1847749299E+00  0.5636899765E+15  0.2670990634E+00  0.3554359381E-17 -0.1757795265E+00
  0.8000000000E+00  0.1000000000E+01  0.1429536967E+00  0.1517779384E+01 -0.4753658816E-16 -0.5379566791E+00  0.5636899765E+15  0.1347425428E+01 -0.5223916549E-16 -0.6298851284E+00
  0.7530110648E+00  0.1000000000E+01  0.1429536967E+00  0.1741209040E+01 -0.3056795713E-16 -0.4036332721E+00  0.5636899765E+15  0.1595890621E+01 -0.2901303519E-16 -0.4880088874E+00
  0.6570463033E+00  0.1000000000E+01  0.1429536967E+00  0.1190877829E+01 -0.3582807760E-17 -0.4048815128E+00  0.5636899765E+15  0.1065952534E+01  0.1448793380E-17 -0.4686333659E+00
  0.5429536967E+00  0.1000000000E+01  0.1429536967E+00  0.1030245380E+01  0.1257079643E-16 -0.2581489466E+00  0.5636899765E+15  0.9040936949E+00  0.8934648836E-17 -0.2935835036E+00
  0.4469889352E+00  0.1000000000E+01  0.1429536967E+00  0.6515598245E+00  0.1148672688E-16 -0.3395988804E+00  0.5636899765E+15  0.5291156798E+00  0.1242556713E-16 -0.3568723509E+00
  0.4000000000E+00  0.1000000000E+01  0.1429536967E+00  0.7263872853E+00  0.1179435071E-16 -0.3106172927E+00  0.5636899765E+15  0.6150110660E+00  0.1026014032E-16 -0.3205249296E+00
  0.8000000000E+00  0.1000000000E+01  0.2570463033E+00  0.2834675781E+01 -0.8845934484E-17 -0.1180310307E+01  0.5636899765E+15  0.2650113832E+01 -0.9247703913E-17 -0.1314436606E+01
  0.7530110648E+00  0.1000000000E+01  0.2570463033E+00  0.2593486613E+01 -0.7322220080E-17 -0.9309879778E+00  0.5636899765E+15  0.2430697125E+01 -0.8336976031E-17 -0.1059805665E+01
  0.6570463033E+00  0.1000000000E+01  0.2570463033E+00  0.1933880064E+01 -0.2003455750E-17 -0.8412916901E+00  0.5636899765E+15  0.1805801010E+01  0.1566384386E-17 -0.9947452316E+00
  0.5429536967E+00  0.1000000000E+01  0.2570463033E+00  0.1456848209E+01  0.5987292866E-17 -0.5338692670E+00  0.5636899765E+15  0.1302496253E+01  0.3449546125E-17 -0.7149338346E+00
  0.4469889352E+00  0.1000000000E+01  0.2570463033E+00  0.1028239646E+01  0.4417524442E-17 -0.6372702062E+00  0.5636899765E+15  0.8417450293E+00  0.3339392645E-17 -0.7350580230E+00
  0.4000000000E+00  0.1000000000E+01  0.2570463033E+00  0.8991753333E+00  0.5490953143E-17 -0.5938361588E+00  0.5636899765E+15  0.7345446543E+00  0.5323957709E-17 -0.6335439952E+00
  0.8000000000E+00  0.1000000000E+01  0.3530110648E+00  0.3303554064E+01  0.2821501616E-17 -0.1975046423E+01  0.5636899765E+15  0.3102991956E+01  0.3090432842E-17 -0.2041533130E+01
  0.7530110648E+00  0.1000000000E+01  0.3530110648E+00  0.3044244895E+01  0.1322746068E-16 -0.1767623185E+01  0.5636899765E+15  0.2879803883E+01  0.3993344011E-17 -0.1817548872E+01
  0.6570463033E+00  0.1000000000E+01  0.3530110648E+00  0.2264615980E+01  0.3392027782E-17 -0.1575907056E+01  0.5636899765E+15  0.2228265989E+01  0.6032330595E-17 -0.1675054544E+01
  0.5429536967E+00  0.1000000000E+01  0.3530110648E+00  0.1681805699E+01 -0.8208779236E-18 -0.1208347845E+01  0.5636899765E+15  0.1503292945E+01  0.1177775312E-16 -0.1402962626E+01
  0.4469889352E+00  0.1000000000E+01  0.3530110648E+00  0.1170033044E+01  0.7217551993E-17 -0.1149023290E+01  0.5636899765E+15  0.7980877744E+00  0.6780786084E-17 -0.1212578230E+01
  0.4000000000E+00  0.1000000000E+01  0.3530110648E+00  0.1034472046E+01  0.5220016959E-17 -0.1054111814E+01  0.5636899765E+15  0.7488613089E+00  0.5460062155E-17 -0.1035722524E+01
  0.8000000000E+00  0.1000000000E+01  0.4000000000E+00  0.3527970662E+01 -0.5835926080E-17 -0.2434728307E+01  0.5636899765E+15  0.3311380695E+01 -0.5839658020E-17 -0.2421820122E+01
  0.7530110648E+00  0.1000000000E+01  0.4000000000E+00  0.3121717197E+01 -0.1231880113E-18 -0.2198823897E+01  0.5636899765E+15  0.2926942569E+01 -0.1310711572E-17 -0.2138774624E+01
  0.6570463033E+00  0.1000000000E+01  0.4000000000E+00  0.2374447760E+01 -0.1687578407E-17 -0.2100388568E+01  0.5636899765E+15  0.2376534001E+01 -0.1707361107E-17 -0.1984086000E+01
  0.5429536967E+00  0.1000000000E+01  0.4000000000E+00  0.1699703616E+01  0.2542007026E-17 -0.1811371896E+01  0.5636899765E+15  0.1518666986E+01 -0.5882139366E-18 -0.1749077793E+01
  0.4469889352E+00  0.1000000000E+01  0.4000000000E+00  0.1199308066E+01  0.1026365992E-16 -0.1566228701E+01  0.5636899765E+15  0.7534953697E+00 -0.3976805949E-18 -0.1454224870E+01
  0.4000000000E+00  0.1000000000E+01  0.4000000000E+00  0.9905718093E+00  0.6742823182E-17 -0.1352667296E+01  0.5636899765E+15  0.7021080398E+00  0.6690141978E-17 -0.1243688015E+01
ZONE I=6, J=6, K=1, F=POINT
  0.1200000000E+01  0.1000000000E+01  0.0000000000E+00 -0.2469202067E-01  0.8630326357E-19  0.3598997975E-01  0.5636899765E+15 -0.9454934697E-01  0.5900938441E-19  0.3602485410E-01
  0.1153011065E+01  0.1000000000E+01  0.0000000000E+00  0.2098337054E-03  0.2040448727E-18 -0.1012988097E-01  0.5636899765E+15 -0.6869333766E-01 -0.3057300390E-17 -0.9770850739E-02
  0.1057046303E+01  0.1000000000E+01  0.0000000000E+00  0.3629522480E-02  0.5134333860E-19  0.5444462573E-02  0.5636899765E+15 -0.6095036631E-01 -0.1614448612E-17  0.6103078505E-02
  0.9429536967E+00  0.1000000000E+01  0.0000000000E+00 -0.5119469528E-02  0.5665258381E-19 -0.8701184872E-02  0.5636899765E+15 -0.6307137617E-01  0.6129473651E-21 -0.7949670648E-02
  0.8469889352E+00  0.1000000000E+01  0.0000000000E+00 -0.3158538088E-02 -0.1166779155E-19  0.5223503222E-02  0.5636899765E+15 -0.5458526244E-01 -0.1569597449E-19  0.6043863246E-02
  0.8000000000E+00  0.1000000000E+01  0.0000000000E+00 -0.3549830347E-01 -0.6436445224E-19 -0.1109045802E-01  0.5636899765E+15 -0.8320062653E-01 -0.1034240797E-18 -0.1037135665E-01
  0.1200000000E+01  0.1000000000E+01  0.4698893521E-01  0.2542998440E+01 -0.4915775651E-16 -0.1781351385E+00  0.5636899765E+15  0.2351092722E+01 -0.4051780669E-16 -0.2970659232E+00
  0.1153011065E+01  0.1000000000E+01  0.4698893521E-01  0.1848257814E+01 -0.3074096169E-16 -0.5245433788E-01  0.5636899765E+15  0.1653142403E+01 -0.2447402349E-16 -0.1601846254E+00
  0.1057046303E+01  0.1000000000E+01  0.4698893521E-01  0.1682564675E+01 -0.9837130063E-17 -0.1365712523E+00  0.5636899765E+15  0.1493076081E+01 -0.1223803660E-16 -0.2207823145E+00
  0.9429536967E+00  0.1000000000E+01  0.4698893521E-01  0.1028071001E+01 -0.1704622189E-16 -0.1751944825E+00  0.5636899765E+15  0.8486887371E+00 -0.1213674383E-16 -0.2325117798E+00
  0.8469889352E+00  0.1000000000E+01  0.4698893521E-01  0.8855063373E+00 -0.3110119876E-16 -0.2156518691E+00  0.5636899765E+15  0.7183353353E+00 -0.2364506060E-16 -0.2456702209E+00
  0.8000000000E+00  0.1000000000E+01  0.4698893521E-01  0.4669678948E+00 -0.2301894931E-16 -0.1425717747E+00  0.5636899765E+15  0.3120986576E+00 -0.2117068889E-16 -0.1628379498E+00
  0.1200000000E+01  0.1000000000E+01  0.1429536967E+00  0.5841138079E+01 -0.6534949340E-16 -0.5689600052E+00  0.5636899765E+15  0.5632664564E+01 -0.5972619977E-16 -0.7601143251E+00
  0.1153011065E+01  0.1000000000E+01  0.1429536967E+00  0.4394092503E+01 -0.5689398111E-16 -0.8073763247E+00  0.5636899765E+15  0.4171688662E+01 -0.6829470774E-16 -0.9875308638E+00
  0.1057046303E+01  0.1000000000E+01  0.1429536967E+00  0.3951994458E+01 -0.3679626510E-16 -0.6604895000E+00  0.5636899765E+15  0.3739290771E+01 -0.3641178673E-16 -0.8163801289E+00
  0.9429536967E+00  0.1000000000E+01  0.1429536967E+00  0.2596347800E+01 -0.3160734234E-16 -0.8399875059E+00  0.5636899765E+15  0.2388713341E+01 -0.3158456886E-16 -0.9707212578E+00
  0.8469889352E+00  0.1000000000E+01  0.1429536967E+00  0.2222267919E+01 -0.4998335545E-16 -0.5379617664E+00  0.5636899765E+15  0.2023171695E+01 -0.4496053408E-16 -0.6411584204E+00
  0.8000000000E+00  0.1000000000E+01  0.1429536967E+00  0.1433169804E+01 -0.4966755862E-16 -0.5396338234E+00  0.5636899765E+15  0.1264820689E+01 -0.5447158429E-16 -0.6315361566E+00
  0.1200000000E+01  0.1000000000E+01  0.2570463033E+00  0.6554939728E+01 -0.1381654665E-16 -0.1712542058E+01  0.5636899765E+15  0.6328234883E+01 -0.1382652530E-16 -0.1902148201E+01
  0.1153011065E+01  0.1000000000E+01  0.2570463033E+00  0.6033750630E+01 -0.6817428887E-16 -0.2009021172E+01  0.5636899765E+15  0.5786460557E+01 -0.4433871525E-16 -0.2192686261E+01
  0.1057046303E+01  0.1000000000E+01  0.2570463033E+00  0.5126218467E+01 -0.3110832765E-16 -0.1714915110E+01  0.5636899765E+15  0.4884548732E+01 -0.3151457766E-16 -0.1870183375E+01
  0.9429536967E+00  0.1000000000E+01  0.2570463033E+00  0.4003161034E+01 -0.3984729087E-16 -0.1849395909E+01  0.5636899765E+15  0.3778632380E+01 -0.2775448202E-16 -0.1974959898E+01
  0.8469889352E+00  0.1000000000E+01  0.2570463033E+00  0.3298007195E+01 -0.5800278702E-17 -0.1244939380E+01  0.5636899765E+15  0.3089903796E+01 -0.1433962429E-16 -0.1377272358E+01
  0.8000000000E+00  0.1000000000E+01  0.2570463033E+00  0.2796342993E+01 -0.9205309885E-17 -0.1183120342E+01  0.5636899765E+15  0.2612580457E+01 -0.9473810171E-17 -0.1316716539E+01
  0.1200000000E+01  0.1000000000E+01  0.3530110648E+00  0.7200058185E+01  0.1747643007E-16 -0.2913325225E+01  0.5636899765E+15  0.6956932228E+01  0.1754640928E-16 -0.3102669610E+01
  0.1153011065E+01  0.1000000000E+01  0.3530110648E+00  0.6495033889E+01 -0.2210616240E-17 -0.2924801443E+01  0.5636899765E+15  0.6225508372E+01  0.1266636950E-17 -0.3101605564E+01
  0.1057046303E+01  0.1000000000E+01  0.3530110648E+00  0.5689154515E+01 -0.1384384488E-16 -0.2716990208E+01  0.5636899765E+15  0.5403254265E+01 -0.1151599866E-16 -0.2855253924E+01
  0.9429536967E+00  0.1000000000E+01  0.3530110648E+00  0.4538538865E+01 -0.2478797551E-16 -0.2658607684E+01  0.5636899765E+15  0.4298960671E+01 -0.1606927915E-16 -0.2744684428E+01
  0.8469889352E+00  0.1000000000E+01  0.3530110648E+00  0.3853447702E+01  0.6744699759E-17 -0.2130692940E+01  0.5636899765E+15  0.3658355452E+01  0.1793746341E-17 -0.2203187631E+01
  0.8000000000E+00  0.1000000000E+01  0.3530110648E+00  0.3256226191E+01  0.2755805361E-17 -0.1975418778E+01  0.5636899765E+15  0.3056283907E+01  0.3076407286E-17 -0.2041947018E+01
  0.1200000000E+01  0.1000000000E+01  0.4000000000E+00  0.7082802979E+01  0.1770653687E-16 -0.3243409445E+01  0.5636899765E+15  0.6821063038E+01  0.1778176065E-16 -0.3414354592E+01
  0.1153011065E+01  0.1000000000E+01  0.4000000000E+00  0.6739554360E+01  0.1810068523E-16 -0.3457440810E+01  0.5636899765E+15  0.6455467625E+01  0.1496657181E-16 -0.3612153923E+01
  0.1057046303E+01  0.1000000000E+01  0.4000000000E+00  0.5791804709E+01 -0.4096781581E-17 -0.3141497903E+01  0.5636899765E+15  0.5486506139E+01 -0.6605016711E-17 -0.3271675410E+01
  0.9429536967E+00  0.1000000000E+01  0.4000000000E+00  0.4753730596E+01 -0.2674879322E-16 -0.3086432311E+01  0.5636899765E+15  0.4492946359E+01 -0.2146419290E-16 -0.3169068889E+01
  0.8469889352E+00  0.1000000000E+01  0.4000000000E+00  0.3941240284E+01 -0.8862240096E-17 -0.2529754409E+01  0.5636899765E+15  0.3730713184E+01 -0.1087310843E-16 -0.2545240628E+01
  0.8000000000E+00  0.1000000000E+01  0.4000000000E+00  0.3524704923E+01 -0.5874787479E-17 -0.2438267960E+01  0.5636899765E+15  0.3307096835E+01 -0.5843097218E-17 -0.2425049078E+01
ZONE I=6, J=6, K=1, F=POINT
  0.1600000000E+01  0.1000000000E+01  0.0000000000E+00  0.1595656177E+00 -0.8842770009E-18 -0.7417987584E-01  0.5636899765E+15  0.7496532949E-01 -0.1032408091E-17 -0.7089734101E-01
  0.1553011065E+01  0.1000000000E+01  0.0000000000E+00  0.3796221429E-01 -0.2738484000E-17  0.4472552914E-01  0.5636899765E+15 -0.4473418313E-01  0.1258790060E-17  0.4498918273E-01
  0.1457046303E+01  0.1000000000E+01  0.0000000000E+00  0.1406314244E-01 -0.5491589447E-18 -0.3954440072E-02  0.5636899765E+15 -0.6455285164E-01  0.1250909340E-17 -0.3562476039E-02
  0.1342953697E+01  0.1000000000E+01  0.0000000000E+00  0.1985978072E-01  0.1235451347E-17  0.2910243975E-01  0.5636899765E+15 -0.5424426153E-01 -0.2880136963E-17  0.2947663662E-01
  0.1246988935E+01  0.1000000000E+01  0.0000000000E+00  0.2021970829E-02  0.2756273675E-19 -0.8836928657E-02  0.5636899765E+15 -0.6874538672E-01 -0.2175206726E-18 -0.8511006090E-02
  0.1200000000E+01  0.1000000000E+01  0.0000000000E+00  0.6477168201E-01  0.9879220856E-19  0.3599893688E-01  0.5636899765E+15 -0.4803058735E-02  0.5283419025E-19  0.3602853174E-01
  0.1600000000E+01  0.1000000000E+01  0.4698893521E-01  0.3166500909E+01 -0.9284682750E-16  0.1974448912E+00  0.5636899765E+15  0.2979297273E+01 -0.8856565054E-16  0.1010932235E+00
  0.1553011065E+01  0.1000000000E+01  0.4698893521E-01  0.3687971814E+01 -0.4021506941E-16 -0.2873220899E+00  0.5636899765E+15  0.3517356820E+01 -0.4530961664E-16 -0.3964350195E+00
  0.1457046303E+01  0.1000000000E+01  0.4698893521E-01  0.2790781780E+01 -0.1054965539E-16 -0.5235574093E-01  0.5636899765E+15  0.2610709418E+01 -0.5273019631E-17 -0.1934110910E+00
  0.1342953697E+01  0.1000000000E+01  0.4698893521E-01  0.2845802603E+01  0.2859627612E-16 -0.2909311455E-01  0.5636899765E+15  0.2656616826E+01  0.2685730211E-16 -0.1599628537E+00
  0.1246988935E+01  0.1000000000E+01  0.4698893521E-01  0.2267621941E+01 -0.2405573439E-17 -0.5136538940E-04  0.5636899765E+15  0.2083240363E+01 -0.1011853204E-16 -0.1231705113E+00
  0.1200000000E+01  0.1000000000E+01  0.4698893521E-01  0.2642186008E+01 -0.5346166573E-16 -0.1838918149E+00  0.5636899765E+15  0.2448334174E+01 -0.4474007010E-16 -0.3023957902E+00
  0.1600000000E+01  0.1000000000E+01  0.1429536967E+00  0.6682858681E+01 -0.2633105539E-15 -0.1531186059E+01  0.5636899765E+15  0.6473714421E+01 -0.2741032258E-15 -0.1775434951E+01
  0.1553011065E+01  0.1000000000E+01  0.1429536967E+00  0.8391010487E+01 -0.1529814149E-15 -0.7029208983E+00  0.5636899765E+15  0.8241213152E+01 -0.1465879033E-15 -0.9432913047E+00
  0.1457046303E+01  0.1000000000E+01  0.1429536967E+00  0.6510797606E+01  0.3331266684E-16 -0.7165664135E+00  0.5636899765E+15  0.6330527329E+01  0.2169209953E-16 -0.9450621963E+00
  0.1342953697E+01  0.1000000000E+01  0.1429536967E+00  0.6606716288E+01  0.1007107728E-15 -0.7166619801E-01  0.5636899765E+15  0.6400204048E+01  0.9305181542E-16 -0.2801375719E+00
  0.1246988935E+01  0.1000000000E+01  0.1429536967E+00  0.5253100633E+01  0.1145099322E-16 -0.6769827452E+00  0.5636899765E+15  0.5063662753E+01  0.2694166645E-16 -0.8737155871E+00
  0.1200000000E+01  0.1000000000E+01  0.1429536967E+00  0.6010166661E+01 -0.6937194419E-16 -0.5629781574E+00  0.5636899765E+15  0.5789096637E+01 -0.6374187406E-16 -0.7551750748E+00
  0.1600000000E+01  0.1000000000E+01  0.2570463033E+00  0.1191856607E+02  0.9196933111E-16 -0.3076908756E+01  0.5636899765E+15  0.1173401860E+02  0.9132088048E-16 -0.3321887133E+01
  0.1553011065E+01  0.1000000000E+01  0.2570463033E+00  0.1089849053E+02  0.1157191454E-15 -0.2009758557E+01  0.5636899765E+15  0.1072682102E+02  0.1118528735E-15 -0.2247631951E+01
  0.1457046303E+01  0.1000000000E+01  0.2570463033E+00  0.9710499975E+01  0.1784377680E-15 -0.1987684844E+01  0.5636899765E+15  0.9505297175E+01  0.1666562856E-15 -0.2209494651E+01
  0.1342953697E+01  0.1000000000E+01  0.2570463033E+00  0.8207456740E+01  0.1279346873E-15 -0.1019549943E+01  0.5636899765E+15  0.7989825017E+01  0.1156326590E-15 -0.1227677504E+01
  0.1246988935E+01  0.1000000000E+01  0.2570463033E+00  0.6988129614E+01  0.4193786812E-16 -0.1895650449E+01  0.5636899765E+15  0.6784926201E+01  0.2920488367E-16 -0.2090978852E+01
  0.1200000000E+01  0.1000000000E+01  0.2570463033E+00  0.6596280375E+01 -0.1430642579E-16 -0.1702280233E+01  0.5636899765E+15  0.6369461266E+01 -0.1416148607E-16 -0.1895062498E+01
  0.1600000000E+01  0.1000000000E+01  0.3530110648E+00  0.1066598919E+02  0.1902071104E-15 -0.3407423665E+01  0.5636899765E+15  0.1048083052E+02  0.1907067727E-15 -0.3632413577E+01
  0.1553011065E+01  0.1000000000E+01  0.3530110648E+00  0.1091813730E+02  0.1915799116E-15 -0.3346617204E+01  0.5636899765E+15  0.1075560442E+02  0.1903647413E-15 -0.3580774342E+01
  0.1457046303E+01  0.1000000000E+01  0.3530110648E+00  0.9888450919E+01  0.1820043167E-15 -0.3042369325E+01  0.5636899765E+15  0.9680422652E+01  0.1728150740E-15 -0.3291060467E+01
  0.1342953697E+01  0.1000000000E+01  0.3530110648E+00  0.8734803434E+01  0.1301972176E-15 -0.2496358666E+01  0.5636899765E+15  0.8500553961E+01  0.1249400595E-15 -0.2727402931E+01
  0.1246988935E+01  0.1000000000E+01  0.3530110648E+00  0.7358399410E+01  0.3867234044E-16 -0.2890070088E+01  0.5636899765E+15  0.7137536623E+01  0.4743150264E-16 -0.3093100741E+01
  0.1200000000E+01  0.1000000000E+01  0.3530110648E+00  0.7279302085E+01  0.1763970058E-16 -0.2913408390E+01  0.5636899765E+15  0.7031934133E+01  0.1761984259E-16 -0.3102591760E+01
  0.1600000000E+01  0.1000000000E+01  0.4000000000E+00  0.1096352594E+02  0.1892956273E-15 -0.3907735636E+01  0.5636899765E+15  0.1078578549E+02  0.1892122682E-15 -0.4227051746E+01
  0.1553011065E+01  0.1000000000E+01  0.4000000000E+00  0.1035827578E+02  0.1931619935E-15 -0.3187603907E+01  0.5636899765E+15  0.1020007430E+02  0.1961504763E-15 -0.3495644219E+01
  0.1457046303E+01  0.1000000000E+01  0.4000000000E+00  0.9917632205E+01  0.1602868116E-15 -0.3457435972E+01  0.5636899765E+15  0.9703659900E+01  0.1600608567E-15 -0.3733783580E+01
  0.1342953697E+01  0.1000000000E+01  0.4000000000E+00  0.8636867371E+01  0.1381925828E-15 -0.2844828010E+01  0.5636899765E+15  0.8388750204E+01  0.1219034232E-15 -0.3085715863E+01
  0.1246988935E+01  0.1000000000E+01  0.4000000000E+00  0.7630795514E+01  0.3740685697E-16 -0.3453561581E+01  0.5636899765E+15  0.7390241698E+01  0.4162367827E-16 -0.3647943976E+01
  0.1200000000E+01  0.1000000000E+01  0.4000000000E+00  0.7056335140E+01  0.1808396535E-16 -0.3230578927E+01  0.5636899765E+15  0.6795829792E+01  0.1804135549E-16 -0.3404704187E+01
ZONE I=6, J=6, K=1, F=POINT
  0.2000000000E+01  0.1000000000E+01  0.0000000000E+00  0.2409132631E+01  0.8019453924E-19  0.2123974220E+02  0.5636899765E+15  0.2427615776E+01  0.8421960138E-19  0.2215282422E+02
  0.1953011065E+01  0.1000000000E+01  0.0000000000E+00  0.1339308125E+01 -0.3811769769E-16 -0.1274684973E+00  0.5636899765E+15  0.1257244475E+01 -0.3505054068E-16 -0.1513731932E+00
  0.1857046303E+01  0.1000000000E+01  0.0000000000E+00 -0.2553638518E+00 -0.1597532061E-16  0.1488309206E+00  0.5636899765E+15 -0.3595350212E+00 -0.2232991906E-16  0.1493952496E+00
  0.1742953697E+01  0.1000000000E+01  0.0000000000E+00  0.1733126161E+00  0.3706638094E-18 -0.3681880954E-01  0.5636899765E+15  0.8140167334E-01 -0.4107952856E-19 -0.3755770637E-01
  0.1646988935E+01  0.1000000000E+01  0.0000000000E+00 -0.8877631329E-01  0.2550699467E-18  0.5922571094E-01  0.5636899765E+15 -0.1892028120E+00  0.5038969661E-18  0.5951193296E-01
  0.1600000000E+01  0.1000000000E+01  0.0000000000E+00  0.1162503026E+00 -0.9747207304E-18 -0.8622478502E-01  0.5636899765E+15  0.3354610851E-01 -0.1110480565E-17 -0.8151532518E-01
  0.2000000000E+01  0.1000000000E+01  0.4698893521E-01 -0.1827209830E-02  0.7790934610E-18  0.4853119529E+02  0.5636899765E+15 -0.5640580631E-01  0.7120506981E-18  0.4861668409E+02
  0.1953011065E+01  0.1000000000E+01  0.4698893521E-01  0.1117861603E+02  0.1366237180E-15  0.1668484607E+01  0.5636899765E+15  0.1099921881E+02  0.1339414520E-15  0.1524633727E+01
  0.1857046303E+01  0.1000000000E+01  0.4698893521E-01  0.1183869394E+02  0.3022109315E-15 -0.1744818856E+01  0.5636899765E+15  0.1164204710E+02  0.2883139874E-15 -0.1893120731E+01
  0.1742953697E+01  0.1000000000E+01  0.4698893521E-01  0.5896966858E+01 -0.4662682400E-16 -0.5606533055E+00  0.5636899765E+15  0.5704917643E+01 -0.4558813672E-16 -0.7229051427E+00
  0.1646988935E+01  0.1000000000E+01  0.4698893521E-01  0.4676670323E+01 -0.1365688769E-15 -0.6351855747E+00  0.5636899765E+15  0.4438657402E+01 -0.1240864006E-15 -0.7508714740E+00
  0.1600000000E+01  0.1000000000E+01  0.4698893521E-01  0.2999302064E+01 -0.8988811554E-16  0.1836049262E+00  0.5636899765E+15  0.2822573121E+01 -0.8549281422E-16  0.8183577838E-01
  0.2000000000E+01  0.1000000000E+01  0.1429536967E+00 -0.2856058125E+00  0.2477842355E-17  0.5055652464E+02  0.5636899765E+15 -0.2592359259E+00  0.2569274748E-17  0.5038191266E+02
  0.1953011065E+01  0.1000000000E+01  0.1429536967E+00  0.3015534049E+01 -0.4890053051E-15  0.1657862718E+02  0.5636899765E+15  0.2818345813E+01 -0.5055883139E-15  0.1639973145E+02
  0.1857046303E+01  0.1000000000E+01  0.1429536967E+00  0.1293419951E+02 -0.2868766790E-15 -0.3471129624E+01  0.5636899765E+15  0.1274871910E+02 -0.2759216033E-15 -0.3677947295E+01
  0.1742953697E+01  0.1000000000E+01  0.1429536967E+00  0.1022010828E+02 -0.1330821067E-16 -0.3846647326E+01  0.5636899765E+15  0.1002772597E+02 -0.3282291928E-16 -0.4089803536E+01
  0.1646988935E+01  0.1000000000E+01  0.1429536967E+00  0.9716035845E+01 -0.1677163208E-15 -0.1796147536E+01  0.5636899765E+15  0.9437608521E+01 -0.1677123189E-15 -0.2042303721E+01
  0.1600000000E+01  0.1000000000E+01  0.1429536967E+00  0.6306679309E+01 -0.2795828071E-15 -0.1531880701E+01  0.5636899765E+15  0.6139592924E+01 -0.2909238640E-15 -0.1780206868E+01
  0.2000000000E+01  0.1000000000E+01  0.2570463033E+00  0.1880560015E-01  0.1185611809E-17  0.4991347977E+02  0.5636899765E+15  0.1648380960E-01  0.1082851916E-17  0.4981383055E+02