TITLE = "Generated from ../MESH/Convergence_0000000000.hmesh and Convergence_0000001900.hsol"
VARIABLES = "x","y","z","veloT_x","veloT_y","veloT_z","slr_4","velo_x","velo_y","velo_z"
ZONE I=6, J=6, K=1, F=POINT
  0.4000000000E+00  0.1000000000E+01  0.0000000000E+00 -0.1166990393E-01  0.2888526778E-19  0.7255727578E-02  0.6131332947E+15 -0.1199697041E-01  0.2863400832E-19  0.7405982720E-02
  0.3530110648E+00  0.1000000000E+01  0.0000000000E+00 -0.1364019983E-02  0.1031174927E-19 -0.4585042065E-03  0.6131332947E+15 -0.1361416508E-02  0.1141868637E-19 -0.3938313425E-03
  0.2570463033E+00  0.1000000000E+01  0.0000000000E+00 -0.1514251565E-03  0.1536372291E-20  0.2234898802E-02  0.6131332947E+15  0.9653400808E-04  0.1781676673E-20  0.2211569475E-02
  0.1429536967E+00  0.1000000000E+01  0.0000000000E+00 -0.1001699824E-02  0.3485249247E-21 -0.1116867390E-02  0.6131332947E+15 -0.8595957483E-03  0.3407199436E-21 -0.1132719077E-02
  0.4698893521E-01  0.1000000000E+01  0.0000000000E+00  0.1796213584E-02 -0.2020098283E-20  0.1911278806E-02  0.6131332947E+15  0.1813140151E-02 -0.2082732655E-20  0.1965944292E-02
  0.0000000000E+00  0.1000000000E+01  0.0000000000E+00 -0.7506817903E-02  0.1234367750E-22  0.2052130801E-02  0.6131332947E+15 -0.7511093650E-02  0.1489082781E-22  0.2077420469E-02
  0.4000000000E+00  0.1000000000E+01  0.4698893521E-01  0.2592862569E+00  0.2637913900E-17 -0.5534181356E-01  0.6131332947E+15  0.2581188597E+00  0.2644910848E-17 -0.4986814171E-01
  0.3530110648E+00  0.1000000000E+01  0.4698893521E-01  0.1206418253E+00  0.2324317911E-17 -0.1663058731E-01  0.6131332947E+15  0.1205159870E+00  0.2320003071E-17 -0.1136371280E-01
  0.2570463033E+00  0.1000000000E+01  0.4698893521E-01  0.9617664063E-01  0.7310178169E-18 -0.2336764370E-01  0.6131332947E+15  0.9660111661E-01  0.7359591221E-18 -0.1982211307E-01
  0.1429536967E+00  0.1000000000E+01  0.4698893521E-01  0.5421732985E-02  0.9100775061E-19 -0.1253392423E-01  0.6131332947E+15  0.5637221187E-02  0.9291693784E-19 -0.1060804661E-01
  0.4698893521E-01  0.1000000000E+01  0.4698893521E-01 -0.1032563137E-02  0.1891068296E-20 -0.9289398091E-02  0.6131332947E+15 -0.8522929243E-03  0.1581678231E-20 -0.8799427433E-02
  0.0000000000E+00  0.1000000000E+01  0.4698893521E-01 -0.1807724687E-01  0.9523622696E-21  0.2449323562E-02  0.6131332947E+15 -0.1806566683E-01  0.9576460034E-21  0.2353077687E-02
  0.4000000000E+00  0.1000000000E+01  0.1429536967E+00  0.5425812805E+00  0.8583944632E-17 -0.1331566243E+00  0.6131332947E+15  0.5396711923E+00  0.8547988385E-17 -0.1336091863E+00
  0.3530110648E+00  0.1000000000E+01  0.1429536967E+00  0.2914641592E+00  0.5020930168E-17 -0.1684655066E+00  0.6131332947E+15  0.2912278660E+00  0.5012820225E-17 -0.1673963172E+00
  0.2570463033E+00  0.1000000000E+01  0.1429536967E+00  0.2087402327E+00  0.1417218054E-17 -0.1057638029E+00  0.6131332947E+15  0.2100534332E+00  0.1420063134E-17 -0.1029536594E+00
  0.1429536967E+00  0.1000000000E+01  0.1429536967E+00  0.2731472117E-01  0.2930474769E-18 -0.1166741260E+00  0.6131332947E+15  0.2912112142E-01  0.2947506043E-18 -0.1141951106E+00
  0.4698893521E-01  0.1000000000E+01  0.1429536967E+00 -0.8867428898E-02  0.2507208384E-19 -0.1245207622E-01  0.6131332947E+15 -0.7015684795E-02  0.2202237259E-19 -0.1188873781E-01
  0.0000000000E+00  0.1000000000E+01  0.1429536967E+00 -0.2125013857E-01  0.2444250552E-21 -0.9202838674E-03  0.6131332947E+15 -0.2125826506E-01  0.4503027061E-21 -0.1154043793E-02
  0.4000000000E+00  0.1000000000E+01  0.2570463033E+00  0.5588225494E+00  0.1296361610E-17 -0.3377316620E+00  0.6131332947E+15  0.5492950949E+00  0.1280829915E-17 -0.3532714163E+00
  0.3530110648E+00  0.1000000000E+01  0.2570463033E+00  0.4039565690E+00  0.1628196544E-18 -0.3830346723E+00  0.6131332947E+15  0.3959466302E+00  0.7656435708E-20 -0.3941273735E+00
  0.2570463033E+00  0.1000000000E+01  0.2570463033E+00  0.2522468317E+00  0.2272527482E-18 -0.2645932488E+00  0.6131332947E+15  0.2484476826E+00  0.2279037375E-18 -0.2661775859E+00
  0.1429536967E+00  0.1000000000E+01  0.2570463033E+00  0.6412243599E-01  0.4350710497E-18 -0.2657290636E+00  0.6131332947E+15  0.6702735465E-01  0.4346797563E-18 -0.2629447492E+00
  0.4698893521E-01  0.1000000000E+01  0.2570463033E+00  0.6246744898E-03  0.6118637524E-18 -0.4904278558E-01  0.6131332947E+15  0.5099633781E-02  0.6189514564E-18 -0.4850409454E-01
  0.0000000000E+00  0.1000000000E+01  0.2570463033E+00 -0.1407822992E-01 -0.3811782023E-20 -0.6339579395E-03  0.6131332947E+15 -0.1410593285E-01 -0.4377723653E-20 -0.1075650862E-02
  0.4000000000E+00  0.1000000000E+01  0.3530110648E+00  0.5397454550E+00  0.7744118737E-18 -0.5230899748E+00  0.6131332947E+15  0.5227626828E+00  0.7903884485E-18 -0.5403693379E+00
  0.3530110648E+00  0.1000000000E+01  0.3530110648E+00  0.3920236316E+00  0.4801987960E-18 -0.5412115605E+00  0.6131332947E+15  0.3736817094E+00  0.4801294303E-18 -0.5551890441E+00
  0.2570463033E+00  0.1000000000E+01  0.3530110648E+00  0.2479684466E+00 -0.3301945983E-18 -0.4180263955E+00  0.6131332947E+15  0.2353124819E+00 -0.2623446605E-18 -0.4228300405E+00
  0.1429536967E+00  0.1000000000E+01  0.3530110648E+00  0.6140999493E-01  0.5792068942E-18 -0.3797669328E+00  0.6131332947E+15  0.6393289912E-01  0.5662085563E-18 -0.3782197598E+00
  0.4698893521E-01  0.1000000000E+01  0.3530110648E+00  0.1874922210E-02  0.1130318824E-18 -0.1049962866E+00  0.6131332947E+15  0.9210891672E-02  0.1084925849E-18 -0.1044500625E+00
  0.0000000000E+00  0.1000000000E+01  0.3530110648E+00 -0.1427496677E-01  0.4874845867E-20 -0.5090600048E-03  0.6131332947E+15 -0.1430430100E-01  0.4499451373E-20 -0.1125710063E-02
  0.4000000000E+00  0.1000000000E+01  0.4000000000E+00  0.4989654666E+00  0.2500159295E-17 -0.6127865827E+00  0.6131332947E+15  0.4809390488E+00  0.2495045539E-17 -0.6225491255E+00
  0.3530110648E+00  0.1000000000E+01  0.4000000000E+00  0.4067224527E+00  0.1881252026E-17 -0.6271372827E+00  0.6131332947E+15  0.3858492140E+00  0.1929464526E-17 -0.6378878358E+00
  0.2570463033E+00  0.1000000000E+01  0.4000000000E+00  0.2442938256E+00 -0.5975549467E-18 -0.4960721137E+00  0.6131332947E+15  0.2282052409E+00 -0.6462176758E-18 -0.5033269811E+00
  0.1429536967E+00  0.1000000000E+01  0.4000000000E+00  0.6879708266E-01  0.4823998712E-18 -0.4428047427E+00  0.6131332947E+15  0.7014264549E-01  0.4799339699E-18 -0.4444320879E+00
  0.4698893521E-01  0.1000000000E+01  0.4000000000E+00 -0.2665976379E-02  0.2729642792E-19 -0.1329413715E+00  0.6131332947E+15  0.5165820371E-02  0.2620951186E-19 -0.1324904058E+00
  0.0000000000E+00  0.1000000000E+01  0.4000000000E+00 -0.7218154151E-02  0.7813660627E-20 -0.1711092125E-02  0.6131332947E+15 -0.6969807294E-02  0.8049391343E-20 -0.2269324538E-02
ZONE I=6, J=6, K=1, F=POINT
  0.8000000000E+00  0.1000000000E+01  0.0000000000E+00  0.1755772701E-01 -0.7584372716E-19 -0.1162994624E-01  0.6131332947E+15  0.1710959503E-01 -0.7800077246E-19 -0.1168237663E-01
  0.7530110648E+00  0.1000000000E+01  0.0000000000E+00  0.1817386201E-02  0.8862894316E-19  0.5879413271E-02  0.6131332947E+15  0.1260346268E-02  0.7802162107E-19  0.5889967974E-02
  0.6570463033E+00  0.1000000000E+01  0.0000000000E+00 -0.4624032218E-03  0.2154885764E-19  0.5972079802E-04  0.6131332947E+15 -0.1106701246E-02  0.1268713234E-19  0.9174298465E-05
  0.5429536967E+00  0.1000000000E+01  0.0000000000E+00  0.1028921555E-02  0.3456109763E-19  0.6697679609E-02  0.6131332947E+15  0.3040953222E-03  0.1435319188E-19  0.6716758766E-02
  0.4469889352E+00  0.1000000000E+01  0.0000000000E+00 -0.1627772755E-02 -0.2612056528E-19  0.4133902588E-03  0.6131332947E+15 -0.2245127210E-02 -0.4297493736E-19  0.4556721347E-03
  0.4000000000E+00  0.1000000000E+01  0.0000000000E+00  0.1505665418E-01  0.3259048895E-19  0.6951802268E-02  0.6131332947E+15  0.1477410686E-01  0.3235994647E-19  0.7088637883E-02
  0.8000000000E+00  0.1000000000E+01  0.4698893521E-01  0.3172144680E+00 -0.2592436343E-16 -0.2213873812E-02  0.6131332947E+15  0.3154508736E+00 -0.2589894227E-16 -0.5507909373E-03
  0.7530110648E+00  0.1000000000E+01  0.4698893521E-01  0.5145862795E+00 -0.2554085565E-16 -0.6350926689E-01  0.6131332947E+15  0.5118591618E+00 -0.2538637553E-16 -0.6130809512E-01
  0.6570463033E+00  0.1000000000E+01  0.4698893521E-01  0.3008151749E+00 -0.5527615312E-17 -0.3440073374E-01  0.6131332947E+15  0.2989865054E+00 -0.5545621967E-17 -0.3113722477E-01
  0.5429536967E+00  0.1000000000E+01  0.4698893521E-01  0.3287423996E+00  0.4261091098E-17 -0.2409070248E-01  0.6131332947E+15  0.3269690939E+00  0.4232647260E-17 -0.2146241628E-01
  0.4469889352E+00  0.1000000000E+01  0.4698893521E-01  0.1983852325E+00  0.3662150790E-17 -0.1350810964E-01  0.6131332947E+15  0.1958913294E+00  0.3674296780E-17 -0.9207433062E-02
  0.4000000000E+00  0.1000000000E+01  0.4698893521E-01  0.3015982673E+00  0.2395453555E-17 -0.5611593714E-01  0.6131332947E+15  0.3000771343E+00  0.2404428043E-17 -0.5061995863E-01
  0.8000000000E+00  0.1000000000E+01  0.1429536967E+00  0.8725896467E+00 -0.5620481237E-16 -0.3495970212E+00  0.6131332947E+15  0.8732765517E+00 -0.5617439774E-16 -0.3375399748E+00
  0.7530110648E+00  0.1000000000E+01  0.1429536967E+00  0.1191054875E+01 -0.3662539249E-16 -0.2157956269E+00  0.6131332947E+15  0.1190945829E+01 -0.3668675102E-16 -0.2070562910E+00
  0.6570463033E+00  0.1000000000E+01  0.1429536967E+00  0.7879850639E+00 -0.6735340079E-17 -0.2209813945E+00  0.6131332947E+15  0.7892918172E+00 -0.6785730356E-17 -0.2198834452E+00
  0.5429536967E+00  0.1000000000E+01  0.1429536967E+00  0.7482004837E+00  0.8629144221E-17 -0.7978552080E-01  0.6131332947E+15  0.7464433833E+00  0.8575880293E-17 -0.8305473066E-01
  0.4469889352E+00  0.1000000000E+01  0.1429536967E+00  0.4674344152E+00  0.8685338094E-17 -0.1571505650E+00  0.6131332947E+15  0.4619248471E+00  0.8731378994E-17 -0.1588844694E+00
  0.4000000000E+00  0.1000000000E+01  0.1429536967E+00  0.5948324486E+00  0.9311761067E-17 -0.1326303842E+00  0.6131332947E+15  0.5913374971E+00  0.9268402413E-17 -0.1330731202E+00
  0.8000000000E+00  0.1000000000E+01  0.2570463033E+00  0.1532064247E+01 -0.1595606790E-16 -0.7792465362E+00  0.6131332947E+15  0.1539834418E+01 -0.1595218757E-16 -0.7696326571E+00
  0.7530110648E+00  0.1000000000E+01  0.2570463033E+00  0.1463823707E+01 -0.1284604726E-16 -0.5496788345E+00  0.6131332947E+15  0.1476266775E+01 -0.1281634680E-16 -0.5435940230E+00
  0.6570463033E+00  0.1000000000E+01  0.2570463033E+00  0.1098857799E+01 -0.6990133314E-17 -0.5209951295E+00  0.6131332947E+15  0.1112022487E+01 -0.7344484939E-17 -0.5260730712E+00
  0.5429536967E+00  0.1000000000E+01  0.2570463033E+00  0.8639189244E+00  0.8081635609E-19 -0.2821199359E+00  0.6131332947E+15  0.8656770223E+00  0.1131225871E-18 -0.2982289956E+00
  0.4469889352E+00  0.1000000000E+01  0.2570463033E+00  0.6086263383E+00  0.9621102290E-18 -0.3853737177E+00  0.6131332947E+15  0.6000988409E+00  0.7416942687E-18 -0.4033935344E+00
  0.4000000000E+00  0.1000000000E+01  0.2570463033E+00  0.5901866977E+00  0.1323157066E-17 -0.3371061819E+00  0.6131332947E+15  0.5809810400E+00  0.1308654089E-17 -0.3526818703E+00
  0.8000000000E+00  0.1000000000E+01  0.3530110648E+00  0.1470861248E+01 -0.3403939582E-17 -0.1089783741E+01  0.6131332947E+15  0.1482687863E+01 -0.3408187582E-17 -0.1088853770E+01
  0.7530110648E+00  0.1000000000E+01  0.3530110648E+00  0.1452006328E+01  0.2053535568E-17 -0.9040395833E+00  0.6131332947E+15  0.1468928864E+01  0.2960682744E-17 -0.9031076399E+00
  0.6570463033E+00  0.1000000000E+01  0.3530110648E+00  0.1095885026E+01 -0.4073973500E-17 -0.7834277241E+00  0.6131332947E+15  0.1118944701E+01 -0.4839259022E-17 -0.7841156721E+00
  0.5429536967E+00  0.1000000000E+01  0.3530110648E+00  0.8493674740E+00 -0.4495137356E-17 -0.5191685748E+00  0.6131332947E+15  0.8599431266E+00 -0.5028900524E-17 -0.5318945659E+00
  0.4469889352E+00  0.1000000000E+01  0.3530110648E+00  0.5617301260E+00  0.3898497058E-18 -0.5639913031E+00  0.6131332947E+15  0.5513560138E+00  0.5274011900E-18 -0.5829303085E+00
  0.4000000000E+00  0.1000000000E+01  0.3530110648E+00  0.5730429099E+00  0.7481413467E-18 -0.5229031821E+00  0.6131332947E+15  0.5558395359E+00  0.7649210866E-18 -0.5401775755E+00
  0.8000000000E+00  0.1000000000E+01  0.4000000000E+00  0.1458021134E+01 -0.1174788681E-16 -0.1280704051E+01  0.6131332947E+15  0.1472038176E+01 -0.1175234027E-16 -0.1276142608E+01
  0.7530110648E+00  0.1000000000E+01  0.4000000000E+00  0.1324671616E+01 -0.7219888469E-17 -0.1038938432E+01  0.6131332947E+15  0.1340136599E+01 -0.7080850200E-17 -0.1033814915E+01
  0.6570463033E+00  0.1000000000E+01  0.4000000000E+00  0.1037606030E+01 -0.4605948382E-17 -0.9178574657E+00  0.6131332947E+15  0.1062458875E+01 -0.4489309800E-17 -0.9103926490E+00
  0.5429536967E+00  0.1000000000E+01  0.4000000000E+00  0.7858074528E+00  0.1494146177E-17 -0.6694569696E+00  0.6131332947E+15  0.8017067511E+00  0.2016149316E-17 -0.6689650772E+00
  0.4469889352E+00  0.1000000000E+01  0.4000000000E+00  0.5818186176E+00  0.2843769715E-17 -0.6731176858E+00  0.6131332947E+15  0.5726098256E+00  0.2612789049E-17 -0.6807705390E+00
  0.4000000000E+00  0.1000000000E+01  0.4000000000E+00  0.5108585681E+00  0.2516447393E-17 -0.6120530817E+00  0.6131332947E+15  0.4927083064E+00  0.2515703814E-17 -0.6218920739E+00
ZONE I=6, J=6, K=1, F=POINT
  0.1200000000E+01  0.1000000000E+01  0.0000000000E+00 -0.3182275167E-01  0.6216536825E-19  0.3652357424E-01  0.6131332947E+15 -0.3305077392E-01  0.6302469059E-19  0.3684170758E-01
  0.1153011065E+01  0.1000000000E+01  0.0000000000E+00 -0.5198566023E-02 -0.1998616118E-18 -0.9663268007E-02  0.6131332947E+15 -0.6194038960E-02 -0.2464459269E-18 -0.9548793394E-02
  0.1057046303E+01  0.1000000000E+01  0.0000000000E+00  0.2005005058E-02  0.2145705239E-19  0.5931523365E-02  0.6131332947E+15  0.1273917221E-02  0.1711170901E-20  0.5919329053E-02
  0.9429536967E+00  0.1000000000E+01  0.0000000000E+00 -0.2258500608E-02  0.1669191237E-19 -0.8219240469E-02  0.6131332947E+15 -0.3075779674E-02  0.1683768238E-19 -0.8236867166E-02
  0.8469889352E+00  0.1000000000E+01  0.0000000000E+00  0.3405640158E-02 -0.1102454069E-19  0.5240027742E-02  0.6131332947E+15  0.2536613921E-02 -0.1245824197E-19  0.5251097460E-02
  0.8000000000E+00  0.1000000000E+01  0.0000000000E+00 -0.2734735192E-01 -0.8534550962E-19 -0.1111044119E-01  0.6131332947E+15 -0.2805707794E-01 -0.8771082419E-19 -0.1116404277E-01
  0.1200000000E+01  0.1000000000E+01  0.4698893521E-01  0.1992622539E+01 -0.4138398855E-16 -0.1977237918E+00  0.6131332947E+15  0.1990284160E+01 -0.4125395357E-16 -0.1877323006E+00
  0.1153011065E+01  0.1000000000E+01  0.4698893521E-01  0.1337735029E+01 -0.2623318460E-16 -0.5080006606E-01  0.6131332947E+15  0.1335905760E+01 -0.2618327748E-16 -0.4161148317E-01
  0.1057046303E+01  0.1000000000E+01  0.4698893521E-01  0.1254607102E+01 -0.1233575957E-16 -0.8844012511E-01  0.6131332947E+15  0.1252132277E+01 -0.1235651684E-16 -0.8078135522E-01
  0.9429536967E+00  0.1000000000E+01  0.4698893521E-01  0.7065601382E+00 -0.1641593511E-16 -0.8392438397E-01  0.6131332947E+15  0.7047368048E+00 -0.1635708264E-16 -0.7630355059E-01
  0.8469889352E+00  0.1000000000E+01  0.4698893521E-01  0.6350171765E+00 -0.3022937197E-16 -0.8754885077E-01  0.6131332947E+15  0.6344175441E+00 -0.3020537204E-16 -0.8396419371E-01
  0.8000000000E+00  0.1000000000E+01  0.4698893521E-01  0.2564757283E+00 -0.2523216180E-16 -0.1679080730E-03  0.6131332947E+15  0.2550818108E+00 -0.2521561434E-16  0.1451332751E-02
  0.1200000000E+01  0.1000000000E+01  0.1429536967E+00  0.4366352647E+01 -0.5792799300E-16 -0.5085598050E+00  0.6131332947E+15  0.4368908292E+01 -0.5789447543E-16 -0.4945677496E+00
  0.1153011065E+01  0.1000000000E+01  0.1429536967E+00  0.2987789334E+01 -0.6781398109E-16 -0.7156566461E+00  0.6131332947E+15  0.2988786692E+01 -0.6790974297E-16 -0.7023377978E+00
  0.1057046303E+01  0.1000000000E+01  0.1429536967E+00  0.2751890524E+01 -0.4116790316E-16 -0.5203497591E+00  0.6131332947E+15  0.2749934574E+01 -0.4116229565E-16 -0.5074488795E+00
  0.9429536967E+00  0.1000000000E+01  0.1429536967E+00  0.1654463896E+01 -0.3700344604E-16 -0.6603117552E+00  0.6131332947E+15  0.1654088261E+01 -0.3699623893E-16 -0.6475843222E+00
  0.8469889352E+00  0.1000000000E+01  0.1429536967E+00  0.1465377117E+01 -0.5305092885E-16 -0.3570012694E+00  0.6131332947E+15  0.1468428082E+01 -0.5318385267E-16 -0.3441821760E+00
  0.8000000000E+00  0.1000000000E+01  0.1429536967E+00  0.7892027549E+00 -0.5841118626E-16 -0.3511287386E+00  0.6131332947E+15  0.7912618241E+00 -0.5839716241E-16 -0.3390718209E+00
  0.1200000000E+01  0.1000000000E+01  0.2570463033E+00  0.3948004486E+01 -0.1443762264E-16 -0.1393673091E+01  0.6131332947E+15  0.3949227526E+01 -0.1439514088E-16 -0.1391649324E+01
  0.1153011065E+01  0.1000000000E+01  0.2570463033E+00  0.3520946716E+01 -0.5308232062E-16 -0.1640145882E+01  0.6131332947E+15  0.3520556044E+01 -0.5286558286E-16 -0.1637762311E+01
  0.1057046303E+01  0.1000000000E+01  0.2570463033E+00  0.2916295375E+01 -0.4176314000E-16 -0.1265935302E+01  0.6131332947E+15  0.2914214979E+01 -0.4178069269E-16 -0.1261011213E+01
  0.9429536967E+00  0.1000000000E+01  0.2570463033E+00  0.2197134373E+01 -0.3934966075E-16 -0.1376465159E+01  0.6131332947E+15  0.2194809445E+01 -0.3919323991E-16 -0.1368858543E+01
  0.8469889352E+00  0.1000000000E+01  0.2570463033E+00  0.1824103428E+01 -0.1818064911E-16 -0.8274180503E+00  0.6131332947E+15  0.1825750226E+01 -0.1801911234E-16 -0.8171557688E+00
  0.8000000000E+00  0.1000000000E+01  0.2570463033E+00  0.1494227700E+01 -0.1613284252E-16 -0.7815476529E+00  0.6131332947E+15  0.1501708911E+01 -0.1612473095E-16 -0.7716784740E+00
  0.1200000000E+01  0.1000000000E+01  0.3530110648E+00  0.3751312168E+01  0.1369938474E-16 -0.2323911079E+01  0.6131332947E+15  0.3751873483E+01  0.1372405511E-16 -0.2326974770E+01
  0.1153011065E+01  0.1000000000E+01  0.3530110648E+00  0.3152572070E+01 -0.6755933788E-17 -0.2236572929E+01  0.6131332947E+15  0.3150122544E+01 -0.6696343022E-17 -0.2238822711E+01
  0.1057046303E+01  0.1000000000E+01  0.3530110648E+00  0.2694659207E+01 -0.2305095830E-16 -0.1873313328E+01  0.6131332947E+15  0.2689433603E+01 -0.2305570837E-16 -0.1872796213E+01
  0.9429536967E+00  0.1000000000E+01  0.3530110648E+00  0.2047278001E+01 -0.2676830212E-16 -0.1745927662E+01  0.6131332947E+15  0.2042822557E+01 -0.2663476913E-16 -0.1741260019E+01
  0.8469889352E+00  0.1000000000E+01  0.3530110648E+00  0.1799652643E+01 -0.7237834023E-17 -0.1239093712E+01  0.6131332947E+15  0.1803165349E+01 -0.7199295101E-17 -0.1236167863E+01
  0.8000000000E+00  0.1000000000E+01  0.3530110648E+00  0.1424378181E+01 -0.3361352972E-17 -0.1089956967E+01  0.6131332947E+15  0.1436456803E+01 -0.3354528815E-17 -0.1089097718E+01
  0.1200000000E+01  0.1000000000E+01  0.4000000000E+00  0.3294697877E+01  0.1359329634E-16 -0.2529276521E+01  0.6131332947E+15  0.3294480126E+01  0.1361091218E-16 -0.2524056440E+01
  0.1153011065E+01  0.1000000000E+01  0.4000000000E+00  0.3058773677E+01  0.6154226575E-17 -0.2625320466E+01  0.6131332947E+15  0.3055847160E+01  0.6190807020E-17 -0.2621113758E+01
  0.1057046303E+01  0.1000000000E+01  0.4000000000E+00  0.2475802992E+01 -0.1455410423E-16 -0.2132893201E+01  0.6131332947E+15  0.2468972065E+01 -0.1449164276E-16 -0.2127154963E+01
  0.9429536967E+00  0.1000000000E+01  0.4000000000E+00  0.1967487568E+01 -0.2775631320E-16 -0.1976161389E+01  0.6131332947E+15  0.1962698743E+01 -0.2740045485E-16 -0.1968498825E+01
  0.8469889352E+00  0.1000000000E+01  0.4000000000E+00  0.1627676351E+01 -0.1778803065E-16 -0.1391245609E+01  0.6131332947E+15  0.1633329645E+01 -0.1783840389E-16 -0.1386052567E+01
  0.8000000000E+00  0.1000000000E+01  0.4000000000E+00  0.1454194119E+01 -0.1173573188E-16 -0.1283707592E+01  0.6131332947E+15  0.1467131684E+01 -0.1173738650E-16 -0.1278941618E+01
ZONE I=6, J=6, K=1, F=POINT
  0.1600000000E+01  0.1000000000E+01  0.0000000000E+00  0.1304248555E+00 -0.8638526026E-18 -0.7239397054E-01  0.6131332947E+15  0.1286276301E+00 -0.9893609098E-18 -0.7244773427E-01
  0.1553011065E+01  0.1000000000E+01  0.0000000000E+00  0.1004424332E-01 -0.1307378959E-17  0.4550586244E-01  0.6131332947E+15  0.8362270257E-02 -0.1260799745E-17  0.4523261983E-01
  0.1457046303E+01  0.1000000000E+01  0.0000000000E+00 -0.7768106328E-02 -0.6490549432E-19 -0.3286049761E-02  0.6131332947E+15 -0.9474225570E-02 -0.4412876800E-19 -0.3215406145E-02
  0.1342953697E+01  0.1000000000E+01  0.0000000000E+00  0.4854383896E-02  0.3835476588E-18  0.2994870177E-01  0.6131332947E+15  0.3331733557E-02  0.2996026522E-18  0.2985553042E-01
  0.1246988935E+01  0.1000000000E+01  0.0000000000E+00 -0.8277255906E-02  0.1103904126E-18 -0.8207867715E-02  0.6131332947E+15 -0.9672216950E-02  0.1036188270E-18 -0.8029738009E-02
  0.1200000000E+01  0.1000000000E+01  0.0000000000E+00  0.5725999939E-01  0.6640419570E-19  0.3659873942E-01  0.6131332947E+15  0.5625426437E-01  0.6716810286E-19  0.3691794441E-01
  0.1600000000E+01  0.1000000000E+01  0.4698893521E-01  0.2869227191E+01 -0.8960399450E-16  0.1946184485E+00  0.6131332947E+15  0.2865348412E+01 -0.8950265368E-16  0.2097030168E+00
  0.1553011065E+01  0.1000000000E+01  0.4698893521E-01  0.3278989129E+01 -0.4567895840E-16 -0.3049955657E+00  0.6131332947E+15  0.3275128857E+01 -0.4581403672E-16 -0.2907301367E+00
  0.1457046303E+01  0.1000000000E+01  0.4698893521E-01  0.2250123716E+01 -0.6095729895E-17 -0.9795441637E-01  0.6131332947E+15  0.2246794491E+01 -0.5962860015E-17 -0.8497838712E-01
  0.1342953697E+01  0.1000000000E+01  0.4698893521E-01  0.2231052443E+01  0.3054997227E-16 -0.6146408057E-01  0.6131332947E+15  0.2227313230E+01  0.3052053041E-16 -0.5047197241E-01
  0.1246988935E+01  0.1000000000E+01  0.4698893521E-01  0.1701646203E+01 -0.4732641836E-17 -0.2026585158E-01  0.6131332947E+15  0.1697473270E+01 -0.4919998474E-17 -0.9961135904E-02
  0.1200000000E+01  0.1000000000E+01  0.4698893521E-01  0.2090390584E+01 -0.4559408567E-16 -0.2033969951E+00  0.6131332947E+15  0.2086253993E+01 -0.4543579087E-16 -0.1930464537E+00
  0.1600000000E+01  0.1000000000E+01  0.1429536967E+00  0.5575068073E+01 -0.2675296775E-15 -0.2058326627E+01  0.6131332947E+15  0.5559330551E+01 -0.2676008799E-15 -0.2034246863E+01
  0.1553011065E+01  0.1000000000E+01  0.1429536967E+00  0.7159865374E+01 -0.1537212636E-15 -0.1152434345E+01  0.6131332947E+15  0.7157039158E+01 -0.1538940351E-15 -0.1128921262E+01
  0.1457046303E+01  0.1000000000E+01  0.1429536967E+00  0.4991749676E+01  0.3131396369E-16 -0.1000267518E+01  0.6131332947E+15  0.4991910819E+01  0.3111976236E-16 -0.9783972405E+00
  0.1342953697E+01  0.1000000000E+01  0.1429536967E+00  0.4975804878E+01  0.1058607149E-15 -0.1683984919E+00  0.6131332947E+15  0.4974863524E+01  0.1058346420E-15 -0.1504240668E+00
  0.1246988935E+01  0.1000000000E+01  0.1429536967E+00  0.3741583283E+01  0.2791049936E-16 -0.6323784645E+00  0.6131332947E+15  0.3739715697E+01  0.2814023394E-16 -0.6170364837E+00
  0.1200000000E+01  0.1000000000E+01  0.1429536967E+00  0.4530191649E+01 -0.6207653424E-16 -0.5036189407E+00  0.6131332947E+15  0.4524126440E+01 -0.6194460037E-16 -0.4901412273E+00
  0.1600000000E+01  0.1000000000E+01  0.2570463033E+00  0.9574350519E+01  0.6713132187E-16 -0.4255802981E+01  0.6131332947E+15  0.9577974311E+01  0.6708986408E-16 -0.4251674678E+01
  0.1553011065E+01  0.1000000000E+01  0.2570463033E+00  0.8390182638E+01  0.9132154553E-16 -0.2972916004E+01  0.6131332947E+15  0.8390735122E+01  0.9135198934E-16 -0.2964478426E+01
  0.1457046303E+01  0.1000000000E+01  0.2570463033E+00  0.6921844681E+01  0.1728975968E-15 -0.2515816993E+01  0.6131332947E+15  0.6924967609E+01  0.1729192366E-15 -0.2508300387E+01
  0.1342953697E+01  0.1000000000E+01  0.2570463033E+00  0.5379024497E+01  0.1328024977E-15 -0.1068710729E+01  0.6131332947E+15  0.5383797803E+01  0.1330127356E-15 -0.1063561192E+01
  0.1246988935E+01  0.1000000000E+01  0.2570463033E+00  0.4311078677E+01  0.3967261413E-16 -0.1635032731E+01  0.6131332947E+15  0.4312952894E+01  0.3976723921E-16 -0.1632076130E+01
  0.1200000000E+01  0.1000000000E+01  0.2570463033E+00  0.3988295933E+01 -0.1477426176E-16 -0.1385479409E+01  0.6131332947E+15  0.3989402933E+01 -0.1473064773E-16 -0.1385447632E+01
  0.1600000000E+01  0.1000000000E+01  0.3530110648E+00  0.7464602278E+01  0.1290857554E-15 -0.5068198502E+01  0.6131332947E+15  0.7460949169E+01  0.1290902941E-15 -0.5069635673E+01
  0.1553011065E+01  0.1000000000E+01  0.3530110648E+00  0.7528896023E+01  0.1448980106E-15 -0.4683265003E+01  0.6131332947E+15  0.7530067815E+01  0.1449036465E-15 -0.4686439688E+01
  0.1457046303E+01  0.1000000000E+01  0.3530110648E+00  0.6222549455E+01  0.1628848030E-15 -0.3724458297E+01  0.6131332947E+15  0.6227411170E+01  0.1631188207E-15 -0.3730263677E+01
  0.1342953697E+01  0.1000000000E+01  0.3530110648E+00  0.5046782324E+01  0.1325631686E-15 -0.2464210675E+01  0.6131332947E+15  0.5052527050E+01  0.1327661725E-15 -0.2469673583E+01
  0.1246988935E+01  0.1000000000E+01  0.3530110648E+00  0.3827333437E+01  0.4736849044E-16 -0.2410545468E+01  0.6131332947E+15  0.3830697083E+01  0.4740719256E-16 -0.2414152016E+01
  0.1200000000E+01  0.1000000000E+01  0.3530110648E+00  0.3828026933E+01  0.1377335077E-16 -0.2324691264E+01  0.6131332947E+15  0.3826356637E+01  0.1377584821E-16 -0.2327324847E+01
  0.1600000000E+01  0.1000000000E+01  0.4000000000E+00  0.7447777121E+01  0.1161165566E-15 -0.5964756220E+01  0.6131332947E+15  0.7445200476E+01  0.1160839965E-15 -0.5965326555E+01
  0.1553011065E+01  0.1000000000E+01  0.4000000000E+00  0.6657276900E+01  0.1443724930E-15 -0.4815269493E+01  0.6131332947E+15  0.6661197424E+01  0.1444142843E-15 -0.4816328930E+01
  0.1457046303E+01  0.1000000000E+01  0.4000000000E+00  0.5919384243E+01  0.1413226857E-15 -0.4276640982E+01  0.6131332947E+15  0.5924330629E+01  0.1413224877E-15 -0.4278750600E+01
  0.1342953697E+01  0.1000000000E+01  0.4000000000E+00  0.4603713653E+01  0.1308660279E-15 -0.2807569811E+01  0.6131332947E+15  0.4609160151E+01  0.1310833230E-15 -0.2810263228E+01
  0.1246988935E+01  0.1000000000E+01  0.4000000000E+00  0.3756778430E+01  0.4111243304E-16 -0.2888254041E+01  0.6131332947E+15  0.3757635770E+01  0.4119606383E-16 -0.2885160500E+01
  0.1200000000E+01  0.1000000000E+01  0.4000000000E+00  0.3270727465E+01  0.1384900776E-16 -0.2518748150E+01  0.6131332947E+15  0.3270827960E+01  0.1385379079E-16 -0.2515315441E+01
ZONE I=6, J=6, K=1, F=POINT
  0.2000000000E+01  0.1000000000E+01  0.0000000000E+00  0.2402870981E+01  0.7321941473E-19  0.2123424682E+02  0.6131332946E+15  0.2430650222E+01  0.9413792462E-19  0.2215536777E+02
  0.1953011065E+01  0.1000000000E+01  0.0000000000E+00  0.1292161258E+01 -0.3737775502E-16 -0.1365279372E+00  0.6131332947E+15  0.1295351020E+01 -0.3610696894E-16 -0.1499189645E+00
  0.1857046303E+01  0.1000000000E+01  0.0000000000E+00 -0.3059328442E+00 -0.1878706395E-16  0.1521405171E+00  0.6131332947E+15 -0.3080431105E+00 -0.1935193295E-16  0.1506350901E+00
  0.1742953697E+01  0.1000000000E+01  0.0000000000E+00  0.1348663587E+00  0.2630670607E-18 -0.3821468496E-01  0.6131332947E+15  0.1343025575E+00  0.1679161737E-18 -0.3772414131E-01
  0.1646988935E+01  0.1000000000E+01  0.0000000000E+00 -0.1270217681E+00  0.3754659188E-18  0.6089712834E-01  0.6131332947E+15 -0.1279587115E+00  0.3393077142E-18  0.5982545462E-01
  0.1600000000E+01  0.1000000000E+01  0.0000000000E+00  0.8892087585E-01 -0.9417048861E-18 -0.8466220230E-01  0.6131332947E+15  0.8681670717E-01 -0.1069676009E-17 -0.8334521995E-01
  0.2000000000E+01  0.1000000000E+01  0.4698893521E-01 -0.1072804284E-01  0.7387694233E-18  0.4848385968E+02  0.6131332947E+15 -0.5334057998E-01  0.6850883603E-18  0.4865762500E+02
  0.1953011065E+01  0.1000000000E+01  0.4698893521E-01  0.1099355261E+02  0.1431621367E-15  0.1497659179E+01  0.6131332947E+15  0.1097995836E+02  0.1419045029E-15  0.1515198807E+01
  0.1857046303E+01  0.1000000000E+01  0.4698893521E-01  0.1180106681E+02  0.3108780001E-15 -0.1862060444E+01  0.6131332947E+15  0.1179947897E+02  0.3108948799E-15 -0.1853389249E+01
  0.1742953697E+01  0.1000000000E+01  0.4698893521E-01  0.5868976543E+01 -0.1700046859E-16 -0.6888895911E+00  0.6131332947E+15  0.5870080244E+01 -0.1665818547E-16 -0.6770134086E+00
  0.1646988935E+01  0.1000000000E+01  0.4698893521E-01  0.4380078617E+01 -0.1171995359E-15 -0.6715308393E+00  0.6131332947E+15  0.4377104193E+01 -0.1172472335E-15 -0.6546108122E+00
  0.1600000000E+01  0.1000000000E+01  0.4698893521E-01  0.2707591556E+01 -0.8678370585E-16  0.1802167004E+00  0.6131332947E+15  0.2713033256E+01 -0.8649365258E-16  0.1900507666E+00
  0.2000000000E+01  0.1000000000E+01  0.1429536967E+00 -0.2809493698E+00  0.2637499315E-17  0.5050464022E+02  0.6131332947E+15 -0.2563698183E+00  0.2662926601E-17  0.5044014211E+02
  0.1953011065E+01  0.1000000000E+01  0.1429536967E+00  0.2823489747E+01 -0.5122309371E-15  0.1655384008E+02  0.6131332947E+15  0.2802980726E+01 -0.5127827873E-15  0.1659192730E+02
  0.1857046303E+01  0.1000000000E+01  0.1429536967E+00  0.1277322746E+02 -0.2433877043E-15 -0.3574918971E+01  0.6131332947E+15  0.1275792790E+02 -0.2427286915E-15 -0.3558249628E+01
  0.1742953697E+01  0.1000000000E+01  0.1429536967E+00  0.9732314069E+01  0.3479890090E-16 -0.4398429655E+01  0.6131332947E+15  0.9727257950E+01  0.3362220426E-16 -0.4379160296E+01
  0.1646988935E+01  0.1000000000E+01  0.1429536967E+00  0.8707989008E+01 -0.1475604104E-15 -0.2375723712E+01  0.6131332947E+15  0.8706277025E+01 -0.1474077405E-15 -0.2351288873E+01
  0.1600000000E+01  0.1000000000E+01  0.1429536967E+00  0.5208495153E+01 -0.2837682213E-15 -0.2057616583E+01  0.6131332947E+15  0.5229663008E+01 -0.2843281686E-15 -0.2038800177E+01
  0.2000000000E+01  0.1000000000E+01  0.2570463033E+00  0.1863694489E-01  0.1063906520E-17  0.4987374040E+02  0.6131332947E+15  0.1788673560E-01  0.1002217252E-17  0.4987751078E+02