TITLE = "Generated from ../MESH/Convergence_0000000000.hmesh and Convergence_0000008700.hsol"
VARIABLES = "x","y","z","veloT_x","veloT_y","veloT_z","slr_4","velo_x","velo_y","velo_z"
ZONE I=6, J=6, K=1, F=POINT
  0.4000000000E+00  0.1000000000E+01  0.0000000000E+00 -0.3041103635E-01 -0.3275937743E-20  0.8782908552E-02  0.1678964121E+16  0.4742902546E-01  0.3322636908E-19  0.8065787767E-02
  0.3530110648E+00  0.1000000000E+01  0.0000000000E+00 -0.1538652985E-01 -0.1123048785E-19  0.8572266720E-03  0.1678964121E+16  0.6171462762E-01 -0.1926002559E-19 -0.3382884636E-03
  0.2570463033E+00  0.1000000000E+01  0.0000000000E+00 -0.8126068166E-02 -0.7526571952E-20  0.3488465228E-02  0.1678964121E+16  0.5105105681E-01 -0.1155303313E-19  0.1302412948E-02
  0.1429536967E+00  0.1000000000E+01  0.0000000000E+00 -0.8598814508E-02 -0.6329965765E-21 -0.1970510545E-02  0.1678964121E+16  0.4485459293E-01 -0.3421840108E-20 -0.1496896292E-02
  0.4698893521E-01  0.1000000000E+01  0.0000000000E+00 -0.6429671612E-02 -0.8579263595E-20  0.5500257845E-02  0.1678964121E+16  0.3503886638E-01 -0.4049433863E-20 -0.6439704863E-03
  0.0000000000E+00  0.1000000000E+01  0.0000000000E+00 -0.1028677017E-01  0.7815281720E-22  0.4371865489E-02  0.1678964121E+16 -0.4998029048E-02  0.4803034035E-23 -0.8745111988E-03
  0.4000000000E+00  0.1000000000E+01  0.4698893521E-01  0.1092664497E+00  0.4466918579E-17  0.1722836682E+00  0.1678964121E+16  0.3408330143E+00  0.3145655714E-17  0.3261309726E+00
  0.3530110648E+00  0.1000000000E+01  0.4698893521E-01 -0.1543427813E-01  0.4487923069E-17  0.2145359859E+00  0.1678964121E+16  0.2029969245E+00  0.2043974475E-17  0.3191379738E+00
  0.2570463033E+00  0.1000000000E+01  0.4698893521E-01 -0.8217226233E-02  0.1818979160E-17  0.1762865875E+00  0.1678964121E+16  0.1619090682E+00  0.1660763207E-17  0.2201086074E+00
  0.1429536967E+00  0.1000000000E+01  0.4698893521E-01 -0.9541642487E-01  0.2849381159E-18  0.1561453419E+00  0.1678964121E+16  0.6405690150E-01  0.6959034694E-18  0.1143888367E+00
  0.4698893521E-01  0.1000000000E+01  0.4698893521E-01 -0.7394589795E-01 -0.2246711371E-19  0.1022038139E+00  0.1678964121E+16  0.3906207538E-01  0.1231525925E-18  0.5176102002E-02
  0.0000000000E+00  0.1000000000E+01  0.4698893521E-01 -0.2140480229E-01  0.2200037788E-20  0.1183632207E-01  0.1678964121E+16 -0.1570119055E-01  0.9185033486E-22 -0.2901179571E-01
  0.4000000000E+00  0.1000000000E+01  0.1429536967E+00  0.4711819204E+00  0.8257515820E-17  0.9744923754E-01  0.1678964121E+16  0.8069034400E+00  0.1287615562E-16  0.3446237772E+00
  0.3530110648E+00  0.1000000000E+01  0.1429536967E+00  0.2699997542E+00  0.5516972322E-17  0.5259487989E-01  0.1678964121E+16  0.5661094737E+00  0.3860613059E-17  0.2690950432E+00
  0.2570463033E+00  0.1000000000E+01  0.1429536967E+00  0.1654378622E+00  0.3352501102E-17  0.9747550385E-01  0.1678964121E+16  0.4287786364E+00  0.3503053647E-17  0.2248275424E+00
  0.1429536967E+00  0.1000000000E+01  0.1429536967E+00 -0.1295361796E-01  0.1467275038E-17  0.7712042093E-01  0.1678964121E+16  0.2503777749E+00  0.1464261741E-17  0.6550552220E-01
  0.4698893521E-01  0.1000000000E+01  0.1429536967E+00  0.7168910401E-02 -0.1905152870E-18  0.1084586208E+00  0.1678964121E+16  0.1621372177E+00  0.2825993111E-18  0.4561721801E-02
  0.0000000000E+00  0.1000000000E+01  0.1429536967E+00 -0.1980678367E-01  0.5944478781E-20  0.4181466512E-02  0.1678964121E+16 -0.2193535961E-01 -0.4032260050E-20 -0.4019533720E-01
  0.4000000000E+00  0.1000000000E+01  0.2570463033E+00  0.5750746082E+00  0.5066324252E-17 -0.3516185163E+00  0.1678964121E+16  0.1032439659E+01  0.5467956595E-17 -0.1126255106E+00
  0.3530110648E+00  0.1000000000E+01  0.2570463033E+00  0.5133559927E+00  0.7221903636E-17 -0.3141340715E+00  0.1678964121E+16  0.9067956868E+00  0.9549630528E-17 -0.1525834192E+00
  0.2570463033E+00  0.1000000000E+01  0.2570463033E+00  0.3054860429E+00  0.2949372793E-17 -0.1434031492E+00  0.1678964121E+16  0.6772485078E+00  0.2940264354E-17 -0.5706900387E-01
  0.1429536967E+00  0.1000000000E+01  0.2570463033E+00  0.1255614441E+00  0.2011131185E-17 -0.1486497113E+00  0.1678964121E+16  0.5128588225E+00  0.1988493026E-17 -0.1570177267E+00
  0.4698893521E-01  0.1000000000E+01  0.2570463033E+00  0.1147456269E+00  0.2096983461E-17  0.1427978672E-01  0.1678964121E+16  0.3351699398E+00  0.1049731243E-17 -0.6598675506E-01
  0.0000000000E+00  0.1000000000E+01  0.2570463033E+00 -0.1326354453E-01 -0.8151127656E-20 -0.7828909718E-02  0.1678964121E+16 -0.1421668776E-01  0.4191116260E-20 -0.3546009901E-01
  0.4000000000E+00  0.1000000000E+01  0.3530110648E+00  0.4648230562E+00  0.5044328348E-17 -0.5267437638E+00  0.1678964121E+16  0.1231848533E+01  0.4451732612E-17 -0.3474180022E+00
  0.3530110648E+00  0.1000000000E+01  0.3530110648E+00  0.5413327400E+00  0.4475089568E-17 -0.4764014406E+00  0.1678964121E+16  0.1061699297E+01  0.4380930171E-17 -0.3907114553E+00
  0.2570463033E+00  0.1000000000E+01  0.3530110648E+00  0.4159419171E+00 -0.2271001711E-17 -0.3195262587E+00  0.1678964121E+16  0.8363719300E+00 -0.2696595872E-17 -0.2880312049E+00
  0.1429536967E+00  0.1000000000E+01  0.3530110648E+00  0.2487125968E+00  0.6327452758E-18 -0.2961345327E+00  0.1678964121E+16  0.7114360120E+00  0.1007746081E-17 -0.3350287730E+00
  0.4698893521E-01  0.1000000000E+01  0.3530110648E+00  0.2096115737E+00  0.2308807333E-18 -0.7629496478E-01  0.1678964121E+16  0.4586229780E+00  0.9955707205E-18 -0.1612792179E+00
  0.0000000000E+00  0.1000000000E+01  0.3530110648E+00 -0.1276363563E-01  0.1311455771E-19 -0.2025896596E-01  0.1678964121E+16 -0.1486524692E-01  0.1470128077E-19 -0.3823011107E-01
  0.4000000000E+00  0.1000000000E+01  0.4000000000E+00  0.5460709864E+00  0.5469610007E-17 -0.4793402738E+00  0.1678964121E+16  0.1383966552E+01  0.5645177002E-17 -0.3953197803E+00
  0.3530110648E+00  0.1000000000E+01  0.4000000000E+00  0.6657125188E+00  0.4490615251E-17 -0.5775001430E+00  0.1678964121E+16  0.1213639557E+01  0.3746981818E-17 -0.4640096007E+00
  0.2570463033E+00  0.1000000000E+01  0.4000000000E+00  0.4905602848E+00  0.2873234963E-17 -0.4946614700E+00  0.1678964121E+16  0.9353734175E+00  0.3761276586E-17 -0.4096516812E+00
  0.1429536967E+00  0.1000000000E+01  0.4000000000E+00  0.3316446339E+00  0.3479568946E-17 -0.4233152855E+00  0.1678964121E+16  0.8271824304E+00  0.3123671218E-17 -0.4254446917E+00
  0.4698893521E-01  0.1000000000E+01  0.4000000000E+00  0.2593286254E+00  0.5283351920E-18 -0.1517521351E+00  0.1678964121E+16  0.5178737833E+00  0.7064342481E-18 -0.2040381621E+00
  0.0000000000E+00  0.1000000000E+01  0.4000000000E+00 -0.4190454502E-02  0.1143207849E-19 -0.2998583076E-01  0.1678964121E+16 -0.6352524567E-02  0.2742481403E-20 -0.3327236234E-01
ZONE I=6, J=6, K=1, F=POINT
  0.8000000000E+00  0.1000000000E+01  0.0000000000E+00 -0.3940556783E-01 -0.1748541037E-18 -0.1047597875E-01  0.1678964121E+16  0.1216213428E+00 -0.1202899374E-18 -0.1095812191E-01
  0.7530110648E+00  0.1000000000E+01  0.0000000000E+00 -0.4800331325E-01 -0.1226360902E-17  0.8064179048E-02  0.1678964121E+16  0.1055352988E+00  0.2293913077E-17  0.5871632279E-02
  0.6570463033E+00  0.1000000000E+01  0.0000000000E+00 -0.3857008713E-01 -0.4406155744E-18  0.3098851179E-02  0.1678964121E+16  0.9575693348E-01  0.1302237229E-17 -0.8356410359E-03
  0.5429536967E+00  0.1000000000E+01  0.0000000000E+00 -0.2889387326E-01 -0.7340695628E-18  0.9831713374E-02  0.1678964121E+16  0.8037403620E-01  0.2113996006E-17  0.5058542646E-02
  0.4469889352E+00  0.1000000000E+01  0.0000000000E+00 -0.2570175285E-01 -0.7804002908E-18  0.3325938361E-02  0.1678964121E+16  0.6307640103E-01  0.1944420199E-17 -0.1235936397E-03
  0.4000000000E+00  0.1000000000E+01  0.0000000000E+00 -0.3865361994E-02  0.6346807492E-21  0.8453122025E-02  0.1678964121E+16  0.7500320551E-01  0.3563187871E-19  0.7721365019E-02
  0.8000000000E+00  0.1000000000E+01  0.4698893521E-01  0.9840822883E-01 -0.1833164435E-16  0.1622720860E+00  0.1678964121E+16  0.4560247044E+00 -0.2240485090E-16  0.4763560201E+00
  0.7530110648E+00  0.1000000000E+01  0.4698893521E-01  0.3144967964E+00 -0.3624223986E-17  0.1111522697E+00  0.1678964121E+16  0.6562027556E+00 -0.2354569869E-16  0.4278204791E+00
  0.6570463033E+00  0.1000000000E+01  0.4698893521E-01  0.1191326148E+00 -0.6708750400E-17  0.1171975325E+00  0.1678964121E+16  0.4222067757E+00 -0.2504943113E-17  0.4601828457E+00
  0.5429536967E+00  0.1000000000E+01  0.4698893521E-01  0.1469585425E+00  0.9642076278E-18  0.1222458722E+00  0.1678964121E+16  0.4226537739E+00  0.5863304858E-17  0.4541945473E+00
  0.4469889352E+00  0.1000000000E+01  0.4698893521E-01  0.2297114401E-01  0.5583278223E-17  0.1865286443E+00  0.1678964121E+16  0.2787205795E+00  0.3826029662E-17  0.4110974537E+00
  0.4000000000E+00  0.1000000000E+01  0.4698893521E-01  0.1515347445E+00  0.4249613957E-17  0.1715426038E+00  0.1678964121E+16  0.3836917099E+00  0.2903784101E-17  0.3253826326E+00
  0.8000000000E+00  0.1000000000E+01  0.1429536967E+00  0.1043655532E+01 -0.6236711473E-16 -0.3425997570E+00  0.1678964121E+16  0.1404155653E+01 -0.5217680512E-16  0.1218548911E+00
  0.7530110648E+00  0.1000000000E+01  0.1429536967E+00  0.1358499493E+01 -0.2939649137E-16 -0.1681534054E+00  0.1678964121E+16  0.1708513606E+01 -0.3482875653E-16  0.2872482628E+00
  0.6570463033E+00  0.1000000000E+01  0.1429536967E+00  0.8897701177E+00  0.1047856141E-16 -0.1037011734E+00  0.1678964121E+16  0.1221577156E+01 -0.2774254779E-17  0.2916000917E+00
  0.5429536967E+00  0.1000000000E+01  0.1429536967E+00  0.7335818292E+00  0.3453295208E-17  0.1055861211E+00  0.1678964121E+16  0.1074262776E+01  0.1341858833E-16  0.4134063288E+00
  0.4469889352E+00  0.1000000000E+01  0.1429536967E+00  0.3862408303E+00  0.1136230467E-16  0.6400705667E-01  0.1678964121E+16  0.7375639424E+00  0.7578729347E-17  0.3313401522E+00
  0.4000000000E+00  0.1000000000E+01  0.1429536967E+00  0.5236474621E+00  0.8888271744E-17  0.9797876420E-01  0.1678964121E+16  0.8600888600E+00  0.1358561598E-16  0.3451809066E+00
  0.8000000000E+00  0.1000000000E+01  0.2570463033E+00  0.2312511620E+01 -0.1123289131E-16 -0.1075581662E+01  0.1678964121E+16  0.2685298365E+01 -0.1059403767E-16 -0.6197222099E+00
  0.7530110648E+00  0.1000000000E+01  0.2570463033E+00  0.2182961353E+01 -0.3334022315E-17 -0.8122634333E+00  0.1678964121E+16  0.2569533262E+01  0.1059968772E-17 -0.3660090949E+00
  0.6570463033E+00  0.1000000000E+01  0.2570463033E+00  0.1685385232E+01  0.6306735182E-17 -0.8212673944E+00  0.1678964121E+16  0.2051112718E+01 -0.3900641094E-17 -0.3252067983E+00
  0.5429536967E+00  0.1000000000E+01  0.2570463033E+00  0.1124796208E+01 -0.3681926322E-18 -0.6322952327E+00  0.1678964121E+16  0.1528379589E+01  0.6269371127E-17 -0.8155916854E-01
  0.4469889352E+00  0.1000000000E+01  0.2570463033E+00  0.6138124993E+00  0.6291234936E-17 -0.5383705134E+00  0.1678964121E+16  0.1081955248E+01  0.1058043078E-16 -0.1708970041E+00
  0.4000000000E+00  0.1000000000E+01  0.2570463033E+00  0.6070203807E+00  0.5046399487E-17 -0.3509988958E+00  0.1678964121E+16  0.1064404827E+01  0.5506058191E-17 -0.1120040506E+00
  0.8000000000E+00  0.1000000000E+01  0.3530110648E+00  0.2717751327E+01  0.1393856034E-17 -0.1457670749E+01  0.1678964121E+16  0.3102053439E+01  0.6263193833E-18 -0.1020227841E+01
  0.7530110648E+00  0.1000000000E+01  0.3530110648E+00  0.2667267224E+01 -0.1546010342E-16 -0.1191647837E+01  0.1678964121E+16  0.3047978596E+01  0.6068232882E-17 -0.7727377547E+00
  0.6570463033E+00  0.1000000000E+01  0.3530110648E+00  0.2268906462E+01 -0.3129932320E-17 -0.1066426672E+01  0.1678964121E+16  0.2391056176E+01 -0.1590722660E-16 -0.4605414999E+00
  0.5429536967E+00  0.1000000000E+01  0.3530110648E+00  0.1363722558E+01  0.1857940217E-16 -0.8860453824E+00  0.1678964121E+16  0.1841504468E+01 -0.1844063511E-16  0.7402284125E-02
  0.4469889352E+00  0.1000000000E+01  0.3530110648E+00  0.4244327254E+00  0.2430382750E-18 -0.7110523920E+00  0.1678964121E+16  0.1394373023E+01 -0.1157674927E-17 -0.2623742267E+00
  0.4000000000E+00  0.1000000000E+01  0.3530110648E+00  0.4999373636E+00  0.5143807228E-17 -0.5269773326E+00  0.1678964121E+16  0.1264457731E+01  0.4487259296E-17 -0.3470164431E+00
  0.8000000000E+00  0.1000000000E+01  0.4000000000E+00  0.2834352512E+01 -0.8702258876E-17 -0.1661716245E+01  0.1678964121E+16  0.3205890611E+01 -0.8656643214E-17 -0.1345009401E+01
  0.7530110648E+00  0.1000000000E+01  0.4000000000E+00  0.2640759750E+01 -0.9496597975E-17 -0.1245851844E+01  0.1678964121E+16  0.3057584574E+01 -0.8346598613E-17 -0.9802403479E+00
  0.6570463033E+00  0.1000000000E+01  0.4000000000E+00  0.2373391761E+01  0.1686855929E-17 -0.7397812064E+00  0.1678964121E+16  0.2323982521E+01  0.4513677524E-17 -0.4171838044E+00
  0.5429536967E+00  0.1000000000E+01  0.4000000000E+00  0.1432808415E+01  0.1020840601E-16 -0.3286878310E+00  0.1678964121E+16  0.1941753564E+01  0.2654061666E-16  0.2854980293E+00
  0.4469889352E+00  0.1000000000E+01  0.4000000000E+00  0.5111718544E+00 -0.1397832306E-16 -0.4308452893E+00  0.1678964121E+16  0.1796025964E+01  0.1359175152E-16 -0.1969072437E+00
  0.4000000000E+00  0.1000000000E+01  0.4000000000E+00  0.5615973464E+00  0.5628254135E-17 -0.4793180103E+00  0.1678964121E+16  0.1394769988E+01  0.5705220490E-17 -0.3939384520E+00
ZONE I=6, J=6, K=1, F=POINT
  0.1200000000E+01  0.1000000000E+01  0.0000000000E+00 -0.1471264302E+00 -0.1972467476E-19  0.3828161190E-01  0.1678964121E+16  0.5511505258E-01  0.2944587293E-19  0.3938700151E-01
  0.1153011065E+01  0.1000000000E+01  0.0000000000E+00 -0.1146138435E+00 -0.5671066196E-17 -0.8112178610E-02  0.1678964121E+16  0.8667516698E-01  0.3564953939E-17 -0.8178421796E-02
  0.1057046303E+01  0.1000000000E+01  0.0000000000E+00 -0.9425828495E-01 -0.2458232692E-17  0.7808877248E-02  0.1678964121E+16  0.1006647552E+00  0.2579388016E-17  0.6782194525E-02
  0.9429536967E+00  0.1000000000E+01  0.0000000000E+00 -0.8172336455E-01 -0.1587955252E-18 -0.6301345571E-02  0.1678964121E+16  0.1003057919E+00 -0.6776429318E-19 -0.7835258871E-02
  0.8469889352E+00  0.1000000000E+01  0.0000000000E+00 -0.6153367885E-01 -0.5783304568E-19  0.7362870831E-02  0.1678964121E+16  0.1068071434E+00 -0.6081558352E-19  0.5456222096E-02
  0.8000000000E+00  0.1000000000E+01  0.0000000000E+00 -0.8470360369E-01 -0.1940483572E-18 -0.9957137779E-02  0.1678964121E+16  0.7600526433E-01 -0.1275873494E-18 -0.1047974507E-01
  0.1200000000E+01  0.1000000000E+01  0.4698893521E-01  0.1916315710E+01 -0.2061717794E-16 -0.4348262452E+00  0.1678964121E+16  0.2287725236E+01 -0.3748482699E-16 -0.1214593072E+00
  0.1153011065E+01  0.1000000000E+01  0.4698893521E-01  0.1217211617E+01 -0.1029913275E-16 -0.2431099100E+00  0.1678964121E+16  0.1589246147E+01 -0.2248166932E-16  0.6884614765E-01
  0.1057046303E+01  0.1000000000E+01  0.4698893521E-01  0.1093097045E+01 -0.1754416890E-16 -0.1718436363E+00  0.1678964121E+16  0.1470539492E+01 -0.1250859449E-16  0.1481066341E+00
  0.9429536967E+00  0.1000000000E+01  0.4698893521E-01  0.4965627150E+00 -0.1849236416E-17 -0.5320513529E-01  0.1678964121E+16  0.8717021253E+00 -0.1200653430E-16  0.2684790611E+00
  0.8469889352E+00  0.1000000000E+01  0.4698893521E-01  0.4089099209E+00 -0.9211764622E-17  0.4214072565E-01  0.1678964121E+16  0.7708181210E+00 -0.2559786092E-16  0.3590896588E+00
  0.8000000000E+00  0.1000000000E+01  0.4698893521E-01  0.3841888388E-01 -0.1753868914E-16  0.1643306608E+00  0.1678964121E+16  0.3941626372E+00 -0.2166760876E-16  0.4783573990E+00
  0.1200000000E+01  0.1000000000E+01  0.1429536967E+00  0.5141373440E+01 -0.4655510384E-16 -0.1010812692E+01  0.1678964121E+16  0.5521301680E+01 -0.5651209993E-16 -0.5473965998E+00
  0.1153011065E+01  0.1000000000E+01  0.1429536967E+00  0.3636369477E+01 -0.1031169082E-15 -0.1176451086E+01  0.1678964121E+16  0.4008983535E+01 -0.8498642360E-16 -0.7146297128E+00
  0.1057046303E+01  0.1000000000E+01  0.1429536967E+00  0.3245107829E+01 -0.3611750256E-16 -0.8539105501E+00  0.1678964121E+16  0.3608596191E+01 -0.3672210688E-16 -0.3908200920E+00
  0.9429536967E+00  0.1000000000E+01  0.1429536967E+00  0.1955415957E+01 -0.3186413691E-16 -0.8460084692E+00  0.1678964121E+16  0.2329261699E+01 -0.3170036182E-16 -0.3639478256E+00
  0.8469889352E+00  0.1000000000E+01  0.1429536967E+00  0.1639455519E+01 -0.3637421363E-16 -0.3983733843E+00  0.1678964121E+16  0.2018249425E+01 -0.4732956398E-16  0.7431678986E-01
  0.8000000000E+00  0.1000000000E+01  0.1429536967E+00  0.9598757417E+00 -0.6485885782E-16 -0.3442044517E+00  0.1678964121E+16  0.1322359588E+01 -0.5453314326E-16  0.1202704494E+00
  0.1200000000E+01  0.1000000000E+01  0.2570463033E+00  0.5781475213E+01 -0.1846051242E-16 -0.2107399699E+01  0.1678964121E+16  0.6143825051E+01 -0.1807280636E-16 -0.1660151010E+01
  0.1153011065E+01  0.1000000000E+01  0.2570463033E+00  0.5152915004E+01  0.3251160912E-16 -0.2346832114E+01  0.1678964121E+16  0.5537976645E+01 -0.2510291832E-17 -0.1900733646E+01
  0.1057046303E+01  0.1000000000E+01  0.2570463033E+00  0.4261568462E+01 -0.3520379144E-16 -0.1881325375E+01  0.1678964121E+16  0.4633259609E+01 -0.3456147803E-16 -0.1460212550E+01
  0.9429536967E+00  0.1000000000E+01  0.2570463033E+00  0.3260228426E+01  0.4830183460E-17 -0.1815121261E+01  0.1678964121E+16  0.3617465346E+01 -0.1452733745E-16 -0.1412130885E+01
  0.8469889352E+00  0.1000000000E+01  0.2570463033E+00  0.2670462295E+01 -0.2908545349E-16 -0.1154227198E+01  0.1678964121E+16  0.3042002143E+01 -0.1110262605E-16 -0.7098173228E+00
  0.8000000000E+00  0.1000000000E+01  0.2570463033E+00  0.2274491316E+01 -0.1094763084E-16 -0.1078160938E+01  0.1678964121E+16  0.2647878528E+01 -0.1040537491E-16 -0.6219271114E+00
  0.1200000000E+01  0.1000000000E+01  0.3530110648E+00  0.6335928006E+01  0.1086664234E-16 -0.3248030232E+01  0.1678964121E+16  0.6713144949E+01  0.1097802230E-16 -0.2783411992E+01
  0.1153011065E+01  0.1000000000E+01  0.3530110648E+00  0.5484804911E+01  0.7168237845E-17 -0.3184513633E+01  0.1678964121E+16  0.5875481141E+01  0.2232530416E-17 -0.2726559662E+01
  0.1057046303E+01  0.1000000000E+01  0.3530110648E+00  0.4617803037E+01 -0.1701240664E-16 -0.2760619474E+01  0.1678964121E+16  0.5041181634E+01 -0.2366649796E-16 -0.2332933820E+01
  0.9429536967E+00  0.1000000000E+01  0.3530110648E+00  0.3664536914E+01  0.3431239279E-17 -0.2401292257E+01  0.1678964121E+16  0.4012141548E+01 -0.1140510236E-16 -0.2024776021E+01
  0.8469889352E+00  0.1000000000E+01  0.3530110648E+00  0.3196917955E+01 -0.2246364639E-16 -0.1687935205E+01  0.1678964121E+16  0.3498908651E+01 -0.1744023577E-16 -0.1272308026E+01
  0.8000000000E+00  0.1000000000E+01  0.3530110648E+00  0.2668917374E+01  0.1677423751E-17 -0.1458037229E+01  0.1678964121E+16  0.3054685470E+01  0.9422934449E-18 -0.1020492943E+01
  0.1200000000E+01  0.1000000000E+01  0.4000000000E+00  0.6150615206E+01  0.9816686786E-17 -0.3569328809E+01  0.1678964121E+16  0.6547033671E+01  0.9864360599E-17 -0.3151850947E+01
  0.1153011065E+01  0.1000000000E+01  0.4000000000E+00  0.5654384674E+01 -0.9014864276E-17 -0.3708650623E+01  0.1678964121E+16  0.6053925210E+01 -0.7677916214E-17 -0.3313591294E+01
  0.1057046303E+01  0.1000000000E+01  0.4000000000E+00  0.4613531855E+01 -0.2298773270E-16 -0.3238119852E+01  0.1678964121E+16  0.5054216822E+01 -0.2059955736E-16 -0.2859415700E+01
  0.9429536967E+00  0.1000000000E+01  0.4000000000E+00  0.3751561134E+01 -0.5668339391E-17 -0.2872899654E+01  0.1678964121E+16  0.4108779279E+01 -0.1256745641E-16 -0.2512918423E+01
  0.8469889352E+00  0.1000000000E+01  0.4000000000E+00  0.3165056868E+01 -0.2196883790E-16 -0.1942867743E+01  0.1678964121E+16  0.3453739064E+01 -0.1940842905E-16 -0.1627987276E+01
  0.8000000000E+00  0.1000000000E+01  0.4000000000E+00  0.2828387613E+01 -0.8553098239E-17 -0.1665728945E+01  0.1678964121E+16  0.3200653968E+01 -0.8540139507E-17 -0.1347907678E+01
ZONE I=6, J=6, K=1, F=POINT
  0.1600000000E+01  0.1000000000E+01  0.0000000000E+00 -0.4315322419E-01 -0.1113887248E-17 -0.6188984671E-01  0.1678964121E+16  0.1686957225E+00 -0.1221682138E-17 -0.6743165969E-01
  0.1553011065E+01  0.1000000000E+01  0.0000000000E+00 -0.1584591366E+00  0.7008674282E-17  0.4683652183E-01  0.1678964121E+16  0.5196286090E-01 -0.3112456667E-17  0.4602722499E-01
  0.1457046303E+01  0.1000000000E+01  0.0000000000E+00 -0.1599532799E+00  0.3361771052E-17 -0.1246172739E-02  0.1678964121E+16  0.4720242898E-01 -0.1515474613E-17 -0.1403464660E-02
  0.1342953697E+01  0.1000000000E+01  0.0000000000E+00 -0.1299871607E+00 -0.7145099742E-17  0.3138736075E-01  0.1678964121E+16  0.7483023281E-01  0.4207913886E-17  0.3113272555E-01
  0.1246988935E+01  0.1000000000E+01  0.0000000000E+00 -0.1298738188E+00 -0.1063651845E-18 -0.6547718493E-02  0.1678964121E+16  0.7296822033E-01  0.8422957160E-18 -0.6298422499E-02
  0.1200000000E+01  0.1000000000E+01  0.0000000000E+00 -0.5771085599E-01 -0.5693727109E-19  0.3828796362E-01  0.1678964121E+16  0.1445670558E+00  0.3742924566E-19  0.3940484788E-01
  0.1600000000E+01  0.1000000000E+01  0.4698893521E-01  0.2416715433E+01 -0.7673335508E-16  0.1517184861E+00  0.1678964121E+16  0.2709239260E+01 -0.8351644566E-16  0.5245509590E+00
  0.1553011065E+01  0.1000000000E+01  0.4698893521E-01  0.3018540289E+01 -0.6140888456E-16 -0.3919425647E+00  0.1678964121E+16  0.3299411021E+01 -0.5312653301E-16 -0.1810130068E-01
  0.1457046303E+01  0.1000000000E+01  0.4698893521E-01  0.2124753568E+01  0.8675455693E-17 -0.3291397446E+00  0.1678964121E+16  0.2435978862E+01 -0.3129742013E-18  0.5778227992E-01
  0.1342953697E+01  0.1000000000E+01  0.4698893521E-01  0.2191845734E+01  0.2170616079E-16 -0.3007612566E+00  0.1678964121E+16  0.2539506237E+01  0.2494551597E-16  0.4750710767E-01
  0.1246988935E+01  0.1000000000E+01  0.4698893521E-01  0.1662035658E+01 -0.2949044218E-16 -0.2715684517E+00  0.1678964121E+16  0.2019491820E+01 -0.1440708527E-16  0.4839996507E-01
  0.1200000000E+01  0.1000000000E+01  0.4698893521E-01  0.2014654367E+01 -0.2463108613E-16 -0.4405317065E+00  0.1678964121E+16  0.2383568702E+01 -0.4155835226E-16 -0.1267121514E+00
  0.1600000000E+01  0.1000000000E+01  0.1429536967E+00  0.5884865441E+01 -0.3111991047E-15 -0.2173201188E+01  0.1678964121E+16  0.6165437139E+01 -0.2938079339E-15 -0.1667498430E+01
  0.1553011065E+01  0.1000000000E+01  0.1429536967E+00  0.7847998186E+01 -0.1336380379E-15 -0.1312106790E+01  0.1678964121E+16  0.8113873226E+01 -0.1462492365E-15 -0.7991345301E+00
  0.1457046303E+01  0.1000000000E+01  0.1429536967E+00  0.5912438758E+01 -0.1076013942E-16 -0.1285030264E+01  0.1678964121E+16  0.6244140284E+01  0.1023362966E-16 -0.7867295559E+00
  0.1342953697E+01  0.1000000000E+01  0.1429536967E+00  0.5957110789E+01  0.7113910521E-16 -0.5920930020E+00  0.1678964121E+16  0.6340100410E+01  0.8546273277E-16 -0.1268637132E+00
  0.1246988935E+01  0.1000000000E+01  0.1429536967E+00  0.4685836483E+01  0.6060076689E-16 -0.1159975489E+01  0.1678964121E+16  0.5049195534E+01  0.3072381858E-16 -0.7003709949E+00
  0.1200000000E+01  0.1000000000E+01  0.1429536967E+00  0.5307393577E+01 -0.5114115311E-16 -0.1005808321E+01  0.1678964121E+16  0.5677534312E+01 -0.6085997123E-16 -0.5427489967E+00
  0.1600000000E+01  0.1000000000E+01  0.2570463033E+00  0.1107528180E+02  0.8262195437E-16 -0.3851765972E+01  0.1678964121E+16  0.1131881549E+02  0.8324264576E-16 -0.3457741995E+01
  0.1553011065E+01  0.1000000000E+01  0.2570463033E+00  0.1021663501E+02  0.9663079332E-16 -0.2718891522E+01  0.1678964121E+16  0.1047342344E+02  0.1030238143E-15 -0.2299579687E+01
  0.1457046303E+01  0.1000000000E+01  0.2570463033E+00  0.9042680390E+01  0.1282487600E-15 -0.2549664007E+01  0.1678964121E+16  0.9394491758E+01  0.1481807947E-15 -0.2118292818E+01
  0.1342953697E+01  0.1000000000E+01  0.2570463033E+00  0.7562357991E+01  0.7845420043E-16 -0.1532476140E+01  0.1678964121E+16  0.7949144142E+01  0.1002748820E-15 -0.1098387740E+01
  0.1246988935E+01  0.1000000000E+01  0.2570463033E+00  0.6363292809E+01 -0.7539136571E-17 -0.2342667403E+01  0.1678964121E+16  0.6710597197E+01  0.1580137697E-16 -0.1899721585E+01
  0.1200000000E+01  0.1000000000E+01  0.2570463033E+00  0.5822375915E+01 -0.1811358408E-16 -0.2097565576E+01  0.1678964121E+16  0.6181535174E+01 -0.1778376528E-16 -0.1653252706E+01
  0.1600000000E+01  0.1000000000E+01  0.3530110648E+00  0.9787663608E+01  0.1839689792E-15 -0.3989020250E+01  0.1678964121E+16  0.9982351420E+01  0.1830788989E-15 -0.3513442776E+01
  0.1553011065E+01  0.1000000000E+01  0.3530110648E+00  0.1019419825E+02  0.1763776744E-15 -0.3902828473E+01  0.1678964121E+16  0.1041001580E+02  0.1780226107E-15 -0.3413442388E+01
  0.1457046303E+01  0.1000000000E+01  0.3530110648E+00  0.9204417461E+01  0.1316045845E-15 -0.3604059026E+01  0.1678964121E+16  0.9541059371E+01  0.1447287065E-15 -0.3086997245E+01
  0.1342953697E+01  0.1000000000E+01  0.3530110648E+00  0.8058714647E+01  0.9960544115E-16 -0.3005945931E+01  0.1678964121E+16  0.8451745411E+01  0.1073059323E-15 -0.2491967698E+01
  0.1246988935E+01  0.1000000000E+01  0.3530110648E+00  0.6649073022E+01  0.6230627050E-16 -0.3292742783E+01  0.1678964121E+16  0.7008163757E+01  0.4672602161E-16 -0.2807578326E+01
  0.1200000000E+01  0.1000000000E+01  0.3530110648E+00  0.6414621711E+01  0.1083675176E-16 -0.3248281616E+01  0.1678964121E+16  0.6787428339E+01  0.1107126580E-16 -0.2783488465E+01
  0.1600000000E+01  0.1000000000E+01  0.4000000000E+00  0.1004261324E+02  0.1796779430E-15 -0.4764084416E+01  0.1678964121E+16  0.1023247981E+02  0.1797863537E-15 -0.4209966193E+01
  0.1553011065E+01  0.1000000000E+01  0.4000000000E+00  0.9631272912E+01  0.1996854479E-15 -0.3971178328E+01  0.1678964121E+16  0.9846633432E+01  0.1977274482E-15 -0.3422554899E+01
  0.1457046303E+01  0.1000000000E+01  0.4000000000E+00  0.9230566599E+01  0.1507039076E-15 -0.4151628820E+01  0.1678964121E+16  0.9566883219E+01  0.1523202112E-15 -0.3642651922E+01
  0.1342953697E+01  0.1000000000E+01  0.4000000000E+00  0.7910807820E+01  0.7134187169E-16 -0.3431220377E+01  0.1678964121E+16  0.8316037406E+01  0.9967457242E-16 -0.2943603630E+01
  0.1246988935E+01  0.1000000000E+01  0.4000000000E+00  0.6850068848E+01  0.4032533679E-16 -0.3867300229E+01  0.1678964121E+16  0.7232662805E+01  0.3096836232E-16 -0.3420611831E+01
  0.1200000000E+01  0.1000000000E+01  0.4000000000E+00  0.6122620586E+01  0.9760148090E-17 -0.3556755835E+01  0.1678964121E+16  0.6523262273E+01  0.9931818550E-17 -0.3142275282E+01
ZONE I=6, J=6, K=1, F=POINT
  0.2000000000E+01  0.1000000000E+01  0.0000000000E+00  0.2375694601E+01  0.3277375591E-19  0.2121347057E+02  0.1678964121E+16  0.2420603019E+01  0.8872761371E-19  0.2214636973E+02
  0.1953011065E+01  0.1000000000E+01  0.0000000000E+00  0.1084077000E+01 -0.3308716488E-16 -0.1701823332E+00  0.1678964121E+16  0.1279459228E+01 -0.3611139644E-16 -0.1651260935E+00
  0.1857046303E+01  0.1000000000E+01  0.0000000000E+00 -0.5469217513E+00 -0.3222213513E-16  0.1610597658E+00  0.1678964121E+16 -0.3091928534E+00 -0.1907873263E-16  0.1575555075E+00
  0.1742953697E+01  0.1000000000E+01  0.0000000000E+00 -0.6872759022E-01 -0.4798412784E-18 -0.3875843706E-01  0.1678964121E+16  0.1552848786E+00  0.3243583618E-19 -0.3603668089E-01
  0.1646988935E+01  0.1000000000E+01  0.0000000000E+00 -0.3406613373E+00  0.7922919000E-18  0.6458112884E-01  0.1678964121E+16 -0.8999131586E-01 -0.2224454760E-19  0.6183626450E-01
  0.1600000000E+01  0.1000000000E+01  0.0000000000E+00 -0.7966622142E-01 -0.1155198426E-17 -0.7378795123E-01  0.1678964121E+16  0.1281029715E+00 -0.1291915008E-17 -0.7810486037E-01
  0.2000000000E+01  0.1000000000E+01  0.4698893521E-01 -0.4836481282E-01  0.6939133947E-18  0.4826936968E+02  0.1678964121E+16 -0.7111256670E-01  0.5706074449E-18  0.4864538545E+02
  0.1953011065E+01  0.1000000000E+01  0.4698893521E-01  0.1034309264E+02  0.1285465363E-15  0.8642739251E+00  0.1678964121E+16  0.1048416604E+02  0.1285112722E-15  0.1052619592E+01
  0.1857046303E+01  0.1000000000E+01  0.4698893521E-01  0.1085750826E+02  0.2320871443E-15 -0.2436355677E+01  0.1678964121E+16  0.1105794454E+02  0.2468995803E-15 -0.2200012439E+01
  0.1742953697E+01  0.1000000000E+01  0.4698893521E-01  0.4980010291E+01 -0.4524439245E-16 -0.1057832571E+01  0.1678964121E+16  0.5223369045E+01 -0.4576400288E-16 -0.6824684334E+00
  0.1646988935E+01  0.1000000000E+01  0.4698893521E-01  0.3648850047E+01 -0.8376035195E-16 -0.7910305909E+00  0.1678964121E+16  0.3978759538E+01 -0.1018662144E-15 -0.3959968150E+00
  0.1600000000E+01  0.1000000000E+01  0.4698893521E-01  0.2255850821E+01 -0.7410933681E-16  0.1371302415E+00  0.1678964121E+16  0.2556753788E+01 -0.8068525332E-16  0.5046464853E+00
  0.2000000000E+01  0.1000000000E+01  0.1429536967E+00 -0.2732402399E+00  0.3333992898E-17  0.5024861450E+02  0.1678964121E+16 -0.2510345253E+00  0.3567930324E-17  0.5044807718E+02
  0.1953011065E+01  0.1000000000E+01  0.1429536967E+00  0.2129808601E+01 -0.5699425731E-15  0.1558496022E+02  0.1678964121E+16  0.2280488237E+01 -0.5549599235E-15  0.1588362281E+02
  0.1857046303E+01  0.1000000000E+01  0.1429536967E+00  0.1184769264E+02 -0.2247931180E-15 -0.4414764469E+01  0.1678964121E+16  0.1191866046E+02 -0.2295287823E-15 -0.4121035036E+01
  0.1742953697E+01  0.1000000000E+01  0.1429536967E+00  0.9078489601E+01 -0.1289695224E-15 -0.4669117910E+01  0.1678964121E+16  0.9207969722E+01 -0.1161906087E-15 -0.4234734547E+01
  0.1646988935E+01  0.1000000000E+01  0.1429536967E+00  0.8424269309E+01 -0.1754987714E-15 -0.2488756618E+01  0.1678964121E+16  0.8774886580E+01 -0.1760590026E-15 -0.1988623725E+01
  0.1600000000E+01  0.1000000000E+01  0.1429536967E+00  0.5516891771E+01 -0.3286727103E-15 -0.2172891382E+01  0.1678964121E+16  0.5835844408E+01 -0.3114972523E-15 -0.1672160791E+01
  0.2000000000E+01  0.1000000000E+01  0.2570463033E+00  0.1678107401E-01  0.1004383544E-17  0.4965259748E+02  0.1678964121E+16  0.1988595528E-01  0.1095070086E-17  0.4991761603E+02