TITLE = "Generated from ../MESH/Convergence_0000000000.hmesh and Convergence_0000003900.hsol"
VARIABLES = "x","y","z","veloT_x","veloT_y","veloT_z","slr_4","velo_x","velo_y","velo_z"
ZONE I=6, J=6, K=1, F=POINT
  0.4000000000E+00  0.1000000000E+01  0.0000000000E+00 -0.1224424073E-01  0.2824761746E-19  0.7313079866E-02  0.6652431908E+15 -0.1170154404E-01  0.2832382437E-19  0.7608016458E-02
  0.3530110648E+00  0.1000000000E+01  0.0000000000E+00 -0.1795322887E-02  0.6785358324E-20 -0.3174082008E-03  0.6652431908E+15 -0.1088540629E-02  0.5909364655E-20 -0.2771846349E-03
  0.2570463033E+00  0.1000000000E+01  0.0000000000E+00 -0.4322977133E-03  0.7345005502E-21  0.2304353474E-02  0.6652431908E+15  0.2316186062E-03  0.3096899384E-21  0.2275495827E-02
  0.1429536967E+00  0.1000000000E+01  0.0000000000E+00 -0.1663152860E-02  0.1500166674E-21 -0.1079796041E-02  0.6652431908E+15 -0.8122207078E-03  0.6128023045E-22 -0.1102898880E-02
  0.4698893521E-01  0.1000000000E+01  0.0000000000E+00  0.1100235585E-02 -0.2567880698E-20  0.2076898905E-02  0.6652431908E+15  0.1822629809E-02 -0.2600656348E-20  0.2051728878E-02
  0.0000000000E+00  0.1000000000E+01  0.0000000000E+00 -0.7596407821E-02  0.1247807885E-22  0.2106546460E-02  0.6652431908E+15 -0.7509222509E-02  0.1115105025E-22  0.2062267630E-02
  0.4000000000E+00  0.1000000000E+01  0.4698893521E-01  0.2649706364E+00  0.2912793791E-17 -0.3705992579E-01  0.6652431908E+15  0.2654111216E+00  0.2910620324E-17 -0.3944840734E-01
  0.3530110648E+00  0.1000000000E+01  0.4698893521E-01  0.1245510454E+00  0.2637918035E-17 -0.2953737219E-03  0.6652431908E+15  0.1256252960E+00  0.2629228303E-17 -0.2981107099E-02
  0.2570463033E+00  0.1000000000E+01  0.4698893521E-01  0.9848883208E-01  0.1023822585E-17 -0.9972175697E-02  0.6652431908E+15  0.9914632494E-01  0.1017005189E-17 -0.1402246943E-01
  0.1429536967E+00  0.1000000000E+01  0.4698893521E-01  0.4009051089E-02  0.2463844042E-18 -0.6114764728E-02  0.6652431908E+15  0.4107029347E-02  0.2448814317E-18 -0.9021345357E-02
  0.4698893521E-01  0.1000000000E+01  0.4698893521E-01 -0.3480856831E-02  0.4571166630E-19 -0.6214666300E-02  0.6652431908E+15 -0.3235756694E-02  0.4681270566E-19 -0.7398357010E-02
  0.0000000000E+00  0.1000000000E+01  0.4698893521E-01 -0.1808060613E-01  0.9509072276E-21  0.3141353116E-02  0.6652431908E+15 -0.1799294011E-01  0.9525638768E-21  0.2264858065E-02
  0.4000000000E+00  0.1000000000E+01  0.1429536967E+00  0.5958282031E+00  0.9502378716E-17 -0.8668079289E-01  0.6652431908E+15  0.5963258329E+00  0.9505175423E-17 -0.8628857511E-01
  0.3530110648E+00  0.1000000000E+01  0.1429536967E+00  0.3335385274E+00  0.5587510046E-17 -0.1294658001E+00  0.6652431908E+15  0.3367985076E+00  0.5590339211E-17 -0.1298034103E+00
  0.2570463033E+00  0.1000000000E+01  0.1429536967E+00  0.2386564872E+00  0.2252884824E-17 -0.8138149747E-01  0.6652431908E+15  0.2405968774E+00  0.2251934322E-17 -0.8409068341E-01
  0.1429536967E+00  0.1000000000E+01  0.1429536967E+00  0.4255259513E-01  0.7989155605E-18 -0.1046221342E+00  0.6652431908E+15  0.4075754054E-01  0.7974143165E-18 -0.1076711328E+00
  0.4698893521E-01  0.1000000000E+01  0.1429536967E+00 -0.5695482721E-02  0.1639704110E-18 -0.6299309483E-02  0.6652431908E+15 -0.7011907165E-02  0.1716499664E-18 -0.7787724818E-02
  0.0000000000E+00  0.1000000000E+01  0.1429536967E+00 -0.2125949810E-01 -0.1147956075E-21 -0.2427823072E-03  0.6652431908E+15 -0.2128697967E-01 -0.2044150007E-21 -0.1310287752E-02
  0.4000000000E+00  0.1000000000E+01  0.2570463033E+00  0.6962820916E+00  0.3270266309E-17 -0.3213515788E+00  0.6652431908E+15  0.6971857313E+00  0.3284675682E-17 -0.3206435715E+00
  0.3530110648E+00  0.1000000000E+01  0.2570463033E+00  0.5178956557E+00  0.2921720368E-17 -0.3744513261E+00  0.6652431908E+15  0.5219000807E+00  0.2935636488E-17 -0.3732616224E+00
  0.2570463033E+00  0.1000000000E+01  0.2570463033E+00  0.3292811964E+00  0.1751833804E-17 -0.2689288139E+00  0.6652431908E+15  0.3323318392E+00  0.1752149030E-17 -0.2663032036E+00
  0.1429536967E+00  0.1000000000E+01  0.2570463033E+00  0.1064785782E+00  0.1358404483E-17 -0.2717545171E+00  0.6652431908E+15  0.1054299198E+00  0.1358099833E-17 -0.2703664048E+00
  0.4698893521E-01  0.1000000000E+01  0.2570463033E+00  0.1498656291E-01  0.1039404505E-17 -0.4715466718E-01  0.6652431908E+15  0.1361926201E-01  0.1026898440E-17 -0.4810115425E-01
  0.0000000000E+00  0.1000000000E+01  0.2570463033E+00 -0.1419749399E-01 -0.3476331151E-20 -0.2770370281E-04  0.6652431908E+15 -0.1413685889E-01 -0.3090303179E-20 -0.1276398291E-02
  0.4000000000E+00  0.1000000000E+01  0.3530110648E+00  0.7444917425E+00  0.3630074276E-17 -0.5869094660E+00  0.6652431908E+15  0.7436360183E+00  0.3630234814E-17 -0.5857948051E+00
  0.3530110648E+00  0.1000000000E+01  0.3530110648E+00  0.5555142490E+00  0.3251774157E-17 -0.6069065375E+00  0.6652431908E+15  0.5564554926E+00  0.3253716186E-17 -0.6038122076E+00
  0.2570463033E+00  0.1000000000E+01  0.3530110648E+00  0.3555226367E+00  0.1339870245E-17 -0.4747536468E+00  0.6652431908E+15  0.3576646270E+00  0.1276777992E-17 -0.4700673891E+00
  0.1429536967E+00  0.1000000000E+01  0.3530110648E+00  0.1196238997E+00  0.1778863651E-17 -0.4114257487E+00  0.6652431908E+15  0.1215319047E+00  0.1758115255E-17 -0.4089007705E+00
  0.4698893521E-01  0.1000000000E+01  0.3530110648E+00  0.1937264946E-01  0.5214047508E-18 -0.1090430978E+00  0.6652431908E+15  0.2068555563E-01  0.5272062023E-18 -0.1096245174E+00
  0.0000000000E+00  0.1000000000E+01  0.3530110648E+00 -0.1419376063E-01  0.5923995492E-20 -0.1333876658E-04  0.6652431908E+15 -0.1406034423E-01  0.6323328145E-20 -0.1479381986E-02
  0.4000000000E+00  0.1000000000E+01  0.4000000000E+00  0.7329209505E+00  0.5791532998E-17 -0.7239320448E+00  0.6652431908E+15  0.7293307370E+00  0.5801251187E-17 -0.7160468460E+00
  0.3530110648E+00  0.1000000000E+01  0.4000000000E+00  0.5910191644E+00  0.4951856509E-17 -0.7325292062E+00  0.6652431908E+15  0.5910785779E+00  0.4905240947E-17 -0.7235252125E+00
  0.2570463033E+00  0.1000000000E+01  0.4000000000E+00  0.3630018962E+00  0.1997754874E-17 -0.5801235955E+00  0.6652431908E+15  0.3664332183E+00  0.2059058681E-17 -0.5748571101E+00
  0.1429536967E+00  0.1000000000E+01  0.4000000000E+00  0.1337069841E+00  0.2161605731E-17 -0.4828159883E+00  0.6652431908E+15  0.1368145507E+00  0.2138671390E-17 -0.4821371163E+00
  0.4698893521E-01  0.1000000000E+01  0.4000000000E+00  0.1697207163E-01  0.5489781699E-18 -0.1387742064E+00  0.6652431908E+15  0.1904254654E-01  0.5512715472E-18 -0.1392543662E+00
  0.0000000000E+00  0.1000000000E+01  0.4000000000E+00 -0.6643950489E-02  0.8269544245E-20 -0.1817918863E-02  0.6652431908E+15 -0.6085093696E-02  0.7833249555E-20 -0.2738243483E-02
ZONE I=6, J=6, K=1, F=POINT
  0.8000000000E+00  0.1000000000E+01  0.0000000000E+00  0.1807881913E-01 -0.8487686868E-19 -0.1185990671E-01  0.6652431908E+15  0.1777393500E-01 -0.8779452453E-19 -0.1154202655E-01
  0.7530110648E+00  0.1000000000E+01  0.0000000000E+00  0.2257337443E-02  0.8095229797E-19  0.5950218057E-02  0.6652431908E+15  0.2045462345E-02  0.7389389132E-19  0.6086561869E-02
  0.6570463033E+00  0.1000000000E+01  0.0000000000E+00 -0.4509061802E-03  0.2071887414E-19  0.2305001507E-03  0.6652431908E+15 -0.5991245503E-03  0.1972796583E-19  0.3366278497E-03
  0.5429536967E+00  0.1000000000E+01  0.0000000000E+00  0.7823957645E-03  0.2285802890E-19  0.7049928091E-02  0.6652431908E+15  0.7213302641E-03  0.2102774145E-19  0.7068117984E-02
  0.4469889352E+00  0.1000000000E+01  0.0000000000E+00 -0.1922259162E-02 -0.4081621323E-19  0.6811109561E-03  0.6652431908E+15 -0.1923579669E-02 -0.4221542415E-19  0.7150663009E-03
  0.4000000000E+00  0.1000000000E+01  0.0000000000E+00  0.1460089759E-01  0.3194417247E-19  0.6996804956E-02  0.6652431908E+15  0.1473295852E-01  0.3201496279E-19  0.7316961251E-02
  0.8000000000E+00  0.1000000000E+01  0.4698893521E-01  0.3196870171E+00 -0.2419100552E-16  0.2516385410E-01  0.6652431908E+15  0.3187904743E+00 -0.2417629898E-16  0.9096027237E-02
  0.7530110648E+00  0.1000000000E+01  0.4698893521E-01  0.5139522501E+00 -0.2357566490E-16 -0.3241989386E-01  0.6652431908E+15  0.5121650184E+00 -0.2345806738E-16 -0.4635078213E-01
  0.6570463033E+00  0.1000000000E+01  0.4698893521E-01  0.2974767065E+00 -0.4841787847E-17  0.7163302796E-03  0.6652431908E+15  0.2958812397E+00 -0.4874264503E-17 -0.7952073962E-02
  0.5429536967E+00  0.1000000000E+01  0.4698893521E-01  0.3313472884E+00  0.4215673665E-17  0.7255710234E-02  0.6652431908E+15  0.3303365730E+00  0.4195588614E-17  0.2464487755E-02
  0.4469889352E+00  0.1000000000E+01  0.4698893521E-01  0.2040717260E+00  0.3828630729E-17  0.8480144649E-02  0.6652431908E+15  0.2032039896E+00  0.3835255938E-17  0.6003518483E-02
  0.4000000000E+00  0.1000000000E+01  0.4698893521E-01  0.3074258827E+00  0.2669594307E-17 -0.3783504924E-01  0.6652431908E+15  0.3071225340E+00  0.2671697498E-17 -0.4021556251E-01
  0.8000000000E+00  0.1000000000E+01  0.1429536967E+00  0.1016974848E+01 -0.5526476668E-16 -0.3124540681E+00  0.6652431908E+15  0.1013857437E+01 -0.5533382959E-16 -0.3217142885E+00
  0.7530110648E+00  0.1000000000E+01  0.1429536967E+00  0.1312578075E+01 -0.3539147400E-16 -0.1639826529E+00  0.6652431908E+15  0.1306262161E+01 -0.3529003777E-16 -0.1724550808E+00
  0.6570463033E+00  0.1000000000E+01  0.1429536967E+00  0.8825760742E+00 -0.4529611802E-17 -0.1550749714E+00  0.6652431908E+15  0.8767445243E+00 -0.4294892229E-17 -0.1609978303E+00
  0.5429536967E+00  0.1000000000E+01  0.1429536967E+00  0.8267509920E+00  0.9345790139E-17 -0.1458477372E-01  0.6652431908E+15  0.8225811840E+00  0.9225075380E-17 -0.1693459984E-01
  0.4469889352E+00  0.1000000000E+01  0.1429536967E+00  0.5299709541E+00  0.9033403746E-17 -0.1040265295E+00  0.6652431908E+15  0.5273873067E+00  0.9055926134E-17 -0.1040707003E+00
  0.4000000000E+00  0.1000000000E+01  0.1429536967E+00  0.6477015775E+00  0.1022051796E-16 -0.8611636802E-01  0.6652431908E+15  0.6478378828E+00  0.1021908331E-16 -0.8574315734E-01
  0.8000000000E+00  0.1000000000E+01  0.2570463033E+00  0.1974185413E+01 -0.1541593921E-16 -0.8350006475E+00  0.6652431908E+15  0.1970928929E+01 -0.1541757251E-16 -0.8323421650E+00
  0.7530110648E+00  0.1000000000E+01  0.2570463033E+00  0.1855349525E+01 -0.1040182025E-16 -0.5771263231E+00  0.6652431908E+15  0.1850107049E+01 -0.1035472625E-16 -0.5751374016E+00
  0.6570463033E+00  0.1000000000E+01  0.2570463033E+00  0.1410511747E+01 -0.4905520560E-17 -0.5101879543E+00  0.6652431908E+15  0.1403691729E+01 -0.4712862370E-17 -0.5094810706E+00
  0.5429536967E+00  0.1000000000E+01  0.2570463033E+00  0.1092668302E+01  0.2116808172E-17 -0.2530969566E+00  0.6652431908E+15  0.1086801565E+01  0.2015160646E-17 -0.2519732973E+00
  0.4469889352E+00  0.1000000000E+01  0.2570463033E+00  0.7739702000E+00  0.3790915898E-17 -0.3628051582E+00  0.6652431908E+15  0.7710672240E+00  0.3800255673E-17 -0.3619229459E+00
  0.4000000000E+00  0.1000000000E+01  0.2570463033E+00  0.7279886064E+00  0.3298536585E-17 -0.3206982102E+00  0.6652431908E+15  0.7278732841E+00  0.3311626580E-17 -0.3200361582E+00
  0.8000000000E+00  0.1000000000E+01  0.3530110648E+00  0.2145988811E+01 -0.8244765805E-18 -0.1297216396E+01  0.6652431908E+15  0.2143885463E+01 -0.8467683248E-18 -0.1304456587E+01
  0.7530110648E+00  0.1000000000E+01  0.3530110648E+00  0.2061759662E+01  0.3024179679E-17 -0.1070503350E+01  0.6652431908E+15  0.2057246899E+01  0.2766712793E-17 -0.1077954675E+01
  0.6570463033E+00  0.1000000000E+01  0.3530110648E+00  0.1581926486E+01 -0.2905993435E-17 -0.8820396360E+00  0.6652431908E+15  0.1574758875E+01 -0.2565643232E-17 -0.8877757898E+00
  0.5429536967E+00  0.1000000000E+01  0.3530110648E+00  0.1200106530E+01 -0.3553425018E-17 -0.5765983299E+00  0.6652431908E+15  0.1193496509E+01 -0.3095394829E-17 -0.5801168547E+00
  0.4469889352E+00  0.1000000000E+01  0.3530110648E+00  0.8107182298E+00  0.2806187169E-17 -0.6243365310E+00  0.6652431908E+15  0.8073917440E+00  0.2805501225E-17 -0.6246035931E+00
  0.4000000000E+00  0.1000000000E+01  0.3530110648E+00  0.7772986026E+00  0.3603821230E-17 -0.5867056795E+00  0.6652431908E+15  0.7765498389E+00  0.3603874594E-17 -0.5856011477E+00
  0.8000000000E+00  0.1000000000E+01  0.4000000000E+00  0.2215792825E+01 -0.6604512889E-17 -0.1569338456E+01  0.6652431908E+15  0.2215773713E+01 -0.6592372996E-17 -0.1582704727E+01
  0.7530110648E+00  0.1000000000E+01  0.4000000000E+00  0.2008634755E+01 -0.3343297430E-17 -0.1281748300E+01  0.6652431908E+15  0.2003672967E+01 -0.3427936400E-17 -0.1295824685E+01
  0.6570463033E+00  0.1000000000E+01  0.4000000000E+00  0.1582570822E+01 -0.7009458945E-18 -0.1080332738E+01  0.6652431908E+15  0.1574219280E+01 -0.7252892623E-18 -0.1092614012E+01
  0.5429536967E+00  0.1000000000E+01  0.4000000000E+00  0.1184278784E+01  0.6852639894E-17 -0.7810888766E+00  0.6652431908E+15  0.1175550393E+01  0.6396031210E-17 -0.7884221193E+00
  0.4469889352E+00  0.1000000000E+01  0.4000000000E+00  0.8697746755E+00  0.6860673734E-17 -0.7814832019E+00  0.6652431908E+15  0.8629193103E+00  0.6788196317E-17 -0.7787012634E+00
  0.4000000000E+00  0.1000000000E+01  0.4000000000E+00  0.7441472193E+00  0.5812129776E-17 -0.7231309978E+00  0.6652431908E+15  0.7411841505E+00  0.5818982086E-17 -0.7152936277E+00
ZONE I=6, J=6, K=1, F=POINT
  0.1200000000E+01  0.1000000000E+01  0.0000000000E+00 -0.3073925812E-01  0.5746036936E-19  0.3683441582E-01  0.6652431908E+15 -0.3107141490E-01  0.5923996908E-19  0.3636211503E-01
  0.1153011065E+01  0.1000000000E+01  0.0000000000E+00 -0.4425475040E-02 -0.1971255546E-18 -0.9722789891E-02  0.6652431908E+15 -0.4748281723E-02 -0.2179818093E-18 -0.9643108729E-02
  0.1057046303E+01  0.1000000000E+01  0.0000000000E+00  0.2739295507E-02  0.3509212507E-19  0.5961042174E-02  0.6652431908E+15  0.2279003068E-02  0.2269095329E-19  0.5980614531E-02
  0.9429536967E+00  0.1000000000E+01  0.0000000000E+00 -0.1702593033E-02  0.2714944951E-20 -0.8335714600E-02  0.6652431908E+15 -0.2195763149E-02  0.1592201047E-20 -0.8266064341E-02
  0.8469889352E+00  0.1000000000E+01  0.0000000000E+00  0.3540703596E-02 -0.2343075942E-19  0.5266938150E-02  0.6652431908E+15  0.3076261775E-02 -0.2489406614E-19  0.5365687005E-02
  0.8000000000E+00  0.1000000000E+01  0.0000000000E+00 -0.2709950200E-01 -0.9445904750E-19 -0.1134565405E-01  0.6652431908E+15 -0.2759802288E-01 -0.9757101693E-19 -0.1102969154E-01
  0.1200000000E+01  0.1000000000E+01  0.4698893521E-01  0.2162584846E+01 -0.4222880028E-16 -0.2065319450E+00  0.6652431908E+15  0.2164135913E+01 -0.4226833392E-16 -0.2222054006E+00
  0.1153011065E+01  0.1000000000E+01  0.4698893521E-01  0.1475507088E+01 -0.2660139166E-16 -0.5801137250E-01  0.6652431908E+15  0.1475268108E+01 -0.2657665880E-16 -0.7259280327E-01
  0.1057046303E+01  0.1000000000E+01  0.4698893521E-01  0.1342332731E+01 -0.1292028274E-16 -0.8629480796E-01  0.6652431908E+15  0.1341574434E+01 -0.1294646092E-16 -0.9840712931E-01
  0.9429536967E+00  0.1000000000E+01  0.4698893521E-01  0.7433372871E+00 -0.1541134632E-16 -0.6791587429E-01  0.6652431908E+15  0.7436771890E+00 -0.1542450176E-16 -0.8015915975E-01
  0.8469889352E+00  0.1000000000E+01  0.4698893521E-01  0.6464640651E+00 -0.2835594376E-16 -0.6286450299E-01  0.6652431908E+15  0.6465263706E+00 -0.2834534995E-16 -0.7811863308E-01
  0.8000000000E+00  0.1000000000E+01  0.4698893521E-01  0.2592293053E+00 -0.2349842659E-16  0.2721139529E-01  0.6652431908E+15  0.2583259828E+00 -0.2348777181E-16  0.1109995372E-01
  0.1200000000E+01  0.1000000000E+01  0.1429536967E+00  0.4962863148E+01 -0.5904355673E-16 -0.6107623793E+00  0.6652431908E+15  0.4968481308E+01 -0.5908319562E-16 -0.6297592776E+00
  0.1153011065E+01  0.1000000000E+01  0.1429536967E+00  0.3513586552E+01 -0.6947481724E-16 -0.8131894919E+00  0.6652431908E+15  0.3510894282E+01 -0.6954960548E-16 -0.8312846706E+00
  0.1057046303E+01  0.1000000000E+01  0.1429536967E+00  0.3140033346E+01 -0.4057462364E-16 -0.5892991146E+00  0.6652431908E+15  0.3137065422E+01 -0.4058249955E-16 -0.6042163881E+00
  0.9429536967E+00  0.1000000000E+01  0.1429536967E+00  0.1906524470E+01 -0.3607645875E-16 -0.6852938119E+00  0.6652431908E+15  0.1907774481E+01 -0.3607727330E-16 -0.6981358767E+00
  0.8469889352E+00  0.1000000000E+01  0.1429536967E+00  0.1642331454E+01 -0.5190219740E-16 -0.3344275179E+00  0.6652431908E+15  0.1642675687E+01 -0.5185899186E-16 -0.3450545261E+00
  0.8000000000E+00  0.1000000000E+01  0.1429536967E+00  0.9342387223E+00 -0.5745446848E-16 -0.3140734336E+00  0.6652431908E+15  0.9326556320E+00 -0.5754135200E-16 -0.3233041875E+00
  0.1200000000E+01  0.1000000000E+01  0.2570463033E+00  0.5083874815E+01 -0.8643891605E-17 -0.1699880704E+01  0.6652431908E+15  0.5085544590E+01 -0.8567253531E-17 -0.1703026712E+01
  0.1153011065E+01  0.1000000000E+01  0.2570463033E+00  0.4558844006E+01 -0.4078259663E-16 -0.1936453806E+01  0.6652431908E+15  0.4553909304E+01 -0.4023944225E-16 -0.1940590172E+01
  0.1057046303E+01  0.1000000000E+01  0.2570463033E+00  0.3751434551E+01 -0.3556131072E-16 -0.1522728464E+01  0.6652431908E+15  0.3746008877E+01 -0.3557045171E-16 -0.1525778625E+01
  0.9429536967E+00  0.1000000000E+01  0.2570463033E+00  0.2827255248E+01 -0.3290595239E-16 -0.1556882804E+01  0.6652431908E+15  0.2824963234E+01 -0.3276465534E-16 -0.1556394008E+01
  0.8469889352E+00  0.1000000000E+01  0.2570463033E+00  0.2320353962E+01 -0.1710708857E-16 -0.9170861486E+00  0.6652431908E+15  0.2316931637E+01 -0.1720203105E-16 -0.9148677655E+00
  0.8000000000E+00  0.1000000000E+01  0.2570463033E+00  0.1937337340E+01 -0.1556374539E-16 -0.8375029670E+00  0.6652431908E+15  0.1933625615E+01 -0.1555162725E-16 -0.8344898137E+00
  0.1200000000E+01  0.1000000000E+01  0.3530110648E+00  0.5241662212E+01  0.2949900596E-16 -0.2818919123E+01  0.6652431908E+15  0.5245674576E+01  0.2952566644E-16 -0.2813273748E+01
  0.1153011065E+01  0.1000000000E+01  0.3530110648E+00  0.4527868314E+01  0.9479045756E-17 -0.2725309234E+01  0.6652431908E+15  0.4525698652E+01  0.9530393618E-17 -0.2721260727E+01
  0.1057046303E+01  0.1000000000E+01  0.3530110648E+00  0.3847018678E+01 -0.1223385897E-16 -0.2324164358E+01  0.6652431908E+15  0.3840181662E+01 -0.1223376704E-16 -0.2322999602E+01
  0.9429536967E+00  0.1000000000E+01  0.3530110648E+00  0.2962569534E+01 -0.1774798812E-16 -0.2105785587E+01  0.6652431908E+15  0.2959842813E+01 -0.1765314749E-16 -0.2104296965E+01
  0.8469889352E+00  0.1000000000E+01  0.3530110648E+00  0.2543853656E+01 -0.5643095559E-17 -0.1492131151E+01  0.6652431908E+15  0.2544386508E+01 -0.5589641359E-17 -0.1496225248E+01
  0.8000000000E+00  0.1000000000E+01  0.3530110648E+00  0.2099553300E+01 -0.7604121582E-18 -0.1297469293E+01  0.6652431908E+15  0.2097718819E+01 -0.7757456250E-18 -0.1304741712E+01
  0.1200000000E+01  0.1000000000E+01  0.4000000000E+00  0.4898328119E+01  0.3529632219E-16 -0.3103876223E+01  0.6652431908E+15  0.4902234405E+01  0.3531007274E-16 -0.3097152558E+01
  0.1153011065E+01  0.1000000000E+01  0.4000000000E+00  0.4549293155E+01  0.2539396414E-16 -0.3198450748E+01  0.6652431908E+15  0.4549609138E+01  0.2524260403E-16 -0.3194762243E+01
  0.1057046303E+01  0.1000000000E+01  0.4000000000E+00  0.3737854779E+01 -0.2779063370E-18 -0.2673530533E+01  0.6652431908E+15  0.3732220911E+01 -0.4055775174E-18 -0.2675955557E+01
  0.9429536967E+00  0.1000000000E+01  0.4000000000E+00  0.2984267984E+01 -0.1598885348E-16 -0.2423782549E+01  0.6652431908E+15  0.2982577315E+01 -0.1618354341E-16 -0.2429535508E+01
  0.8469889352E+00  0.1000000000E+01  0.4000000000E+00  0.2459785497E+01 -0.1210365889E-16 -0.1729747365E+01  0.6652431908E+15  0.2464372513E+01 -0.1192458235E-16 -0.1740217109E+01
  0.8000000000E+00  0.1000000000E+01  0.4000000000E+00  0.2211035992E+01 -0.6578651967E-17 -0.1572608355E+01  0.6652431908E+15  0.2211143764E+01 -0.6567661223E-17 -0.1585604953E+01
ZONE I=6, J=6, K=1, F=POINT
  0.1600000000E+01  0.1000000000E+01  0.0000000000E+00  0.1317442039E+00 -0.9103489395E-18 -0.7221078237E-01  0.6652431908E+15  0.1303309497E+00 -0.1028565839E-17 -0.7190811350E-01
  0.1553011065E+01  0.1000000000E+01  0.0000000000E+00  0.1146782641E-01 -0.1364177808E-17  0.4518225741E-01  0.6652431908E+15  0.1089346909E-01 -0.1367067552E-17  0.4514500988E-01
  0.1457046303E+01  0.1000000000E+01  0.0000000000E+00 -0.6201558140E-02 -0.1151123589E-18 -0.3278386177E-02  0.6652431908E+15 -0.6712065832E-02 -0.1196517160E-18 -0.3251612113E-02
  0.1342953697E+01  0.1000000000E+01  0.0000000000E+00  0.6595663542E-02  0.4743828875E-18  0.2986052736E-01  0.6652431908E+15  0.6053393007E-02  0.4448621113E-18  0.2979102771E-01
  0.1246988935E+01  0.1000000000E+01  0.0000000000E+00 -0.6443199182E-02  0.1359952006E-18 -0.8320483306E-02  0.6652431908E+15 -0.7108505636E-02  0.1287863365E-18 -0.8308965064E-02
  0.1200000000E+01  0.1000000000E+01  0.0000000000E+00  0.5875556139E-01  0.6171736051E-19  0.3688795423E-01  0.6652431908E+15  0.5794653868E-01  0.6363226270E-19  0.3639009031E-01
  0.1600000000E+01  0.1000000000E+01  0.4698893521E-01  0.2996621249E+01 -0.8881348567E-16  0.2144843930E+00  0.6652431908E+15  0.2995497851E+01 -0.8878932947E-16  0.2146507162E+00
  0.1553011065E+01  0.1000000000E+01  0.4698893521E-01  0.3471389191E+01 -0.4424776844E-16 -0.2877474447E+00  0.6652431908E+15  0.3474426149E+01 -0.4415279234E-16 -0.2893429795E+00
  0.1457046303E+01  0.1000000000E+01  0.4698893521E-01  0.2482015687E+01 -0.4767186293E-17 -0.9438556759E-01  0.6652431908E+15  0.2485581309E+01 -0.4876447245E-17 -0.1009086488E+00
  0.1342953697E+01  0.1000000000E+01  0.4698893521E-01  0.2468080139E+01  0.2867838759E-16 -0.6529336805E-01  0.6652431908E+15  0.2470808098E+01  0.2869484818E-16 -0.7557814251E-01
  0.1246988935E+01  0.1000000000E+01  0.4698893521E-01  0.1894861707E+01 -0.6912067470E-17 -0.3246122872E-01  0.6652431908E+15  0.1897597454E+01 -0.6780999545E-17 -0.4656584262E-01
  0.1200000000E+01  0.1000000000E+01  0.4698893521E-01  0.2261047708E+01 -0.4645123092E-16 -0.2122237746E+00  0.6652431908E+15  0.2260473314E+01 -0.4645647708E-16 -0.2275055692E+00
  0.1600000000E+01  0.1000000000E+01  0.1429536967E+00  0.6280377508E+01 -0.2666724113E-15 -0.1860017880E+01  0.6652431908E+15  0.6265108144E+01 -0.2666269765E-15 -0.1863964923E+01
  0.1553011065E+01  0.1000000000E+01  0.1429536967E+00  0.7937544973E+01 -0.1435661143E-15 -0.1018119857E+01  0.6652431908E+15  0.7943822426E+01 -0.1439020455E-15 -0.1022426936E+01
  0.1457046303E+01  0.1000000000E+01  0.1429536967E+00  0.5833851271E+01  0.3185120029E-16 -0.9766264242E+00  0.6652431908E+15  0.5842615170E+01  0.3220377006E-16 -0.9834818723E+00
  0.1342953697E+01  0.1000000000E+01  0.1429536967E+00  0.5768856501E+01  0.1008956306E-15 -0.2242336163E+00  0.6652431908E+15  0.5776543197E+01  0.1011845957E-15 -0.2372746291E+00
  0.1246988935E+01  0.1000000000E+01  0.1429536967E+00  0.4407010008E+01  0.2614826152E-16 -0.7440781222E+00  0.6652431908E+15  0.4414769331E+01  0.2580710083E-16 -0.7617462684E+00
  0.1200000000E+01  0.1000000000E+01  0.1429536967E+00  0.5129446964E+01 -0.6322664983E-16 -0.6054130827E+00  0.6652431908E+15  0.5124714222E+01 -0.6315200665E-16 -0.6250730178E+00
  0.1600000000E+01  0.1000000000E+01  0.2570463033E+00  0.1105073174E+02  0.9836499742E-16 -0.3796888434E+01  0.6652431908E+15  0.1105954082E+02  0.9831721530E-16 -0.3797256229E+01
  0.1553011065E+01  0.1000000000E+01  0.2570463033E+00  0.9922504592E+01  0.1223937252E-15 -0.2692335943E+01  0.6652431908E+15  0.9931408995E+01  0.1223527080E-15 -0.2688282243E+01
  0.1457046303E+01  0.1000000000E+01  0.2570463033E+00  0.8481065729E+01  0.1849892740E-15 -0.2504867293E+01  0.6652431908E+15  0.8493722146E+01  0.1856012903E-15 -0.2502088960E+01
  0.1342953697E+01  0.1000000000E+01  0.2570463033E+00  0.6804450934E+01  0.1329182738E-15 -0.1267843651E+01  0.6652431908E+15  0.6819917379E+01  0.1337741219E-15 -0.1269728241E+01
  0.1246988935E+01  0.1000000000E+01  0.2570463033E+00  0.5550298298E+01  0.4137902239E-16 -0.1943836356E+01  0.6652431908E+15  0.5560345185E+01  0.4183221235E-16 -0.1946953340E+01
  0.1200000000E+01  0.1000000000E+01  0.2570463033E+00  0.5123784347E+01 -0.8928475582E-17 -0.1690653818E+01  0.6652431908E+15  0.5125315315E+01 -0.8833298621E-17 -0.1696366818E+01
  0.1600000000E+01  0.1000000000E+01  0.3530110648E+00  0.9392269348E+01  0.1952763600E-15 -0.4421104205E+01  0.6652431908E+15  0.9394081001E+01  0.1951932396E-15 -0.4410717237E+01
  0.1553011065E+01  0.1000000000E+01  0.3530110648E+00  0.9516223780E+01  0.2026626552E-15 -0.4310503829E+01  0.6652431908E+15  0.9526340586E+01  0.2027138302E-15 -0.4301989377E+01
  0.1457046303E+01  0.1000000000E+01  0.3530110648E+00  0.8202703319E+01  0.1965077737E-15 -0.3781317953E+01  0.6652431908E+15  0.8219016645E+01  0.1973335280E-15 -0.3776660979E+01
  0.1342953697E+01  0.1000000000E+01  0.3530110648E+00  0.6859629469E+01  0.1494331998E-15 -0.2823307466E+01  0.6652431908E+15  0.6876392997E+01  0.1499188622E-15 -0.2819139476E+01
  0.1246988935E+01  0.1000000000E+01  0.3530110648E+00  0.5437167024E+01  0.6227869219E-16 -0.2902424893E+01  0.6652431908E+15  0.5447386940E+01  0.6201294111E-16 -0.2895897556E+01
  0.1200000000E+01  0.1000000000E+01  0.3530110648E+00  0.5319702674E+01  0.2961012439E-16 -0.2819439932E+01  0.6652431908E+15  0.5319985576E+01  0.2961349069E-16 -0.2813421253E+01
  0.1600000000E+01  0.1000000000E+01  0.4000000000E+00  0.9509106265E+01  0.1955868225E-15 -0.5216550249E+01  0.6652431908E+15  0.9513895977E+01  0.1955003575E-15 -0.5221371849E+01
  0.1553011065E+01  0.1000000000E+01  0.4000000000E+00  0.8774329953E+01  0.2141256585E-15 -0.4410675974E+01  0.6652431908E+15  0.8787146807E+01  0.2139840828E-15 -0.4413081875E+01
  0.1457046303E+01  0.1000000000E+01  0.4000000000E+00  0.8027768760E+01  0.1892357504E-15 -0.4376603211E+01  0.6652431908E+15  0.8043863525E+01  0.1891630232E-15 -0.4377138609E+01
  0.1342953697E+01  0.1000000000E+01  0.4000000000E+00  0.6535949396E+01  0.1575468407E-15 -0.3254533354E+01  0.6652431908E+15  0.6552293864E+01  0.1583486875E-15 -0.3252665386E+01
  0.1246988935E+01  0.1000000000E+01  0.4000000000E+00  0.5482003521E+01  0.6274550691E-16 -0.3462099049E+01  0.6652431908E+15  0.5490639046E+01  0.6270681728E-16 -0.3454521734E+01
  0.1200000000E+01  0.1000000000E+01  0.4000000000E+00  0.4872974746E+01  0.3555666951E-16 -0.3092175503E+01  0.6652431908E+15  0.4878629591E+01  0.3555863065E-16 -0.3087914283E+01
ZONE I=6, J=6, K=1, F=POINT
  0.2000000000E+01  0.1000000000E+01  0.0000000000E+00  0.2402323498E+01  0.7401906735E-19  0.2123403185E+02  0.6652431907E+15  0.2430192882E+01  0.9453117221E-19  0.2215519395E+02
  0.1953011065E+01  0.1000000000E+01  0.0000000000E+00  0.1292391541E+01 -0.3737164651E-16 -0.1373770328E+00  0.6652431908E+15  0.1295826831E+01 -0.3609804813E-16 -0.1505198938E+00
  0.1857046303E+01  0.1000000000E+01  0.0000000000E+00 -0.3057404862E+00 -0.1875528265E-16  0.1518738597E+00  0.6652431908E+15 -0.3072882098E+00 -0.1929984295E-16  0.1504018324E+00
  0.1742953697E+01  0.1000000000E+01  0.0000000000E+00  0.1355226199E+00  0.2278999452E-18 -0.3735857761E-01  0.6652431908E+15  0.1351356456E+00  0.1166698146E-18 -0.3704557050E-01
  0.1646988935E+01  0.1000000000E+01  0.0000000000E+00 -0.1258924007E+00  0.3256193905E-18  0.6063080888E-01  0.6652431908E+15 -0.1265514004E+00  0.2953076216E-18  0.5979804906E-01
  0.1600000000E+01  0.1000000000E+01  0.0000000000E+00  0.8975750101E-01 -0.9891001083E-18 -0.8434867342E-01  0.6652431908E+15  0.8858614437E-01 -0.1109272770E-17 -0.8266169646E-01
  0.2000000000E+01  0.1000000000E+01  0.4698893521E-01 -0.1205306873E-01  0.7459454132E-18  0.4848353671E+02  0.6652431908E+15 -0.5476323859E-01  0.6866529264E-18  0.4865784142E+02
  0.1953011065E+01  0.1000000000E+01  0.4698893521E-01  0.1096217580E+02  0.1368339983E-15  0.1468155755E+01  0.6652431908E+15  0.1095047506E+02  0.1356227133E-15  0.1486257485E+01
  0.1857046303E+01  0.1000000000E+01  0.4698893521E-01  0.1165974848E+02  0.2907067040E-15 -0.1882483942E+01  0.6652431908E+15  0.1166301442E+02  0.2910740795E-15 -0.1880677130E+01
  0.1742953697E+01  0.1000000000E+01  0.4698893521E-01  0.5784486707E+01 -0.3854220514E-16 -0.6465821862E+00  0.6652431908E+15  0.5788403221E+01 -0.3820098144E-16 -0.6524072032E+00
  0.1646988935E+01  0.1000000000E+01  0.4698893521E-01  0.4471465047E+01 -0.1221616371E-15 -0.6392678890E+00  0.6652431908E+15  0.4469490565E+01 -0.1222511177E-15 -0.6393393710E+00
  0.1600000000E+01  0.1000000000E+01  0.4698893521E-01  0.2833099839E+01 -0.8597218938E-16  0.2002986695E+00  0.6652431908E+15  0.2841863442E+01 -0.8577805337E-16  0.1951494663E+00
  0.2000000000E+01  0.1000000000E+01  0.1429536967E+00 -0.2817941587E+00  0.2726409377E-17  0.5050446624E+02  0.6652431908E+15 -0.2573497384E+00  0.2748463368E-17  0.5044021616E+02
  0.1953011065E+01  0.1000000000E+01  0.1429536967E+00  0.2794851615E+01 -0.5134599829E-15  0.1641131621E+02  0.6652431908E+15  0.2779906072E+01 -0.5134683067E-15  0.1644872878E+02
  0.1857046303E+01  0.1000000000E+01  0.1429536967E+00  0.1273758958E+02 -0.2594066564E-15 -0.3595882340E+01  0.6652431908E+15  0.1273987880E+02 -0.2597795022E-15 -0.3587776186E+01
  0.1742953697E+01  0.1000000000E+01  0.1429536967E+00  0.9997769202E+01 -0.2089368476E-16 -0.4100175809E+01  0.6652431908E+15  0.1000251162E+02 -0.2095968754E-16 -0.4103996600E+01
  0.1646988935E+01  0.1000000000E+01  0.1429536967E+00  0.9301691998E+01 -0.1594820168E-15 -0.2113042208E+01  0.6652431908E+15  0.9298025788E+01 -0.1592242228E-15 -0.2115776394E+01
  0.1600000000E+01  0.1000000000E+01  0.1429536967E+00  0.5910119761E+01 -0.2831592569E-15 -0.1859965934E+01  0.6652431908E+15  0.5934614762E+01 -0.2834960138E-15 -0.1868566535E+01
  0.2000000000E+01  0.1000000000E+01  0.2570463033E+00  0.1905360490E-01  0.1111794766E-17  0.4987445544E+02  0.6652431908E+15  0.1810691975E-01  0.1069700239E-17  0.4987791879E+02