TITLE = "Generated from ../MESH/Convergence_0000000000.hmesh and Convergence_0000004200.hsol"
VARIABLES = "x","y","z","veloT_x","veloT_y","veloT_z","slr_4","velo_x","velo_y","velo_z"
ZONE I=6, J=6, K=1, F=POINT
  0.4000000000E+00  0.1000000000E+01  0.0000000000E+00 -0.1155800774E-01  0.2812187639E-19  0.7768422935E-02  0.6605390272E+15 -0.1103980047E-01  0.2855884060E-19  0.8034545565E-02
  0.3530110648E+00  0.1000000000E+01  0.0000000000E+00 -0.9908732564E-03  0.6834430112E-20 -0.2150088012E-03  0.6605390272E+15 -0.2415703704E-03  0.6796456644E-20 -0.1815104603E-03
  0.2570463033E+00  0.1000000000E+01  0.0000000000E+00  0.1449192232E-03  0.6843915940E-21  0.2363158057E-02  0.6605390272E+15  0.9389711804E-03  0.5646772615E-21  0.2351146280E-02
  0.1429536967E+00  0.1000000000E+01  0.0000000000E+00 -0.9239793154E-03  0.1670890481E-21 -0.1135838436E-02  0.6605390272E+15 -0.1799333389E-03  0.1393316723E-21 -0.1130579008E-02
  0.4698893521E-01  0.1000000000E+01  0.0000000000E+00  0.1735135333E-02 -0.2462294925E-20  0.2095466885E-02  0.6605390272E+15  0.2348281320E-02 -0.2391819379E-20  0.1954205126E-02
  0.0000000000E+00  0.1000000000E+01  0.0000000000E+00 -0.7583423610E-02  0.1209452179E-22  0.2120437253E-02  0.6605390272E+15 -0.7528143205E-02  0.1085022019E-22  0.2027796532E-02
  0.4000000000E+00  0.1000000000E+01  0.4698893521E-01  0.2658761126E+00  0.2957105289E-17 -0.4078821259E-01  0.6605390272E+15  0.2678960639E+00  0.2946089526E-17 -0.4204034720E-01
  0.3530110648E+00  0.1000000000E+01  0.4698893521E-01  0.1253685735E+00  0.2679567237E-17 -0.3947731926E-02  0.6605390272E+15  0.1283692152E+00  0.2650092279E-17 -0.6011585114E-02
  0.2570463033E+00  0.1000000000E+01  0.4698893521E-01  0.9851960928E-01  0.1053952436E-17 -0.1437389793E-01  0.6605390272E+15  0.1008036160E+00  0.1045530447E-17 -0.1811048290E-01
  0.1429536967E+00  0.1000000000E+01  0.4698893521E-01  0.3909637190E-02  0.2668539081E-18 -0.8826877050E-02  0.6605390272E+15  0.5336858678E-02  0.2687665645E-18 -0.1210970498E-01
  0.4698893521E-01  0.1000000000E+01  0.4698893521E-01 -0.2979612156E-02  0.5423191528E-19 -0.7384033408E-02  0.6605390272E+15 -0.1932531370E-02  0.5625086000E-19 -0.9061995763E-02
  0.0000000000E+00  0.1000000000E+01  0.4698893521E-01 -0.1816267802E-01  0.9606781777E-21  0.2553815813E-02  0.6605390272E+15 -0.1807740891E-01  0.9417779699E-21  0.1924777857E-02
  0.4000000000E+00  0.1000000000E+01  0.1429536967E+00  0.5986715228E+00  0.9633168200E-17 -0.9458011326E-01  0.6605390272E+15  0.6008247855E+00  0.9660400930E-17 -0.9839542859E-01
  0.3530110648E+00  0.1000000000E+01  0.1429536967E+00  0.3372086030E+00  0.5760521248E-17 -0.1368892135E+00  0.6605390272E+15  0.3424202052E+00  0.5786928491E-17 -0.1411464303E+00
  0.2570463033E+00  0.1000000000E+01  0.1429536967E+00  0.2393789114E+00  0.2359912521E-17 -0.8716483350E-01  0.6605390272E+15  0.2426514691E+00  0.2357395243E-17 -0.9306530836E-01
  0.1429536967E+00  0.1000000000E+01  0.1429536967E+00  0.4054432537E-01  0.8635287871E-18 -0.1080269182E+00  0.6605390272E+15  0.3986513843E-01  0.8610852823E-18 -0.1126368644E+00
  0.4698893521E-01  0.1000000000E+01  0.1429536967E+00 -0.6410061786E-02  0.1953019238E-18 -0.7637239263E-02  0.6605390272E+15 -0.7054927590E-02  0.2064227148E-18 -0.9894988064E-02
  0.0000000000E+00  0.1000000000E+01  0.1429536967E+00 -0.2133842815E-01 -0.1072031760E-21 -0.9930082005E-03  0.6605390272E+15 -0.2135195174E-01 -0.1792167175E-21 -0.1824841331E-02
  0.4000000000E+00  0.1000000000E+01  0.2570463033E+00  0.7065609925E+00  0.3541947438E-17 -0.3340344012E+00  0.6605390272E+15  0.7069802917E+00  0.3552055104E-17 -0.3425054311E+00
  0.3530110648E+00  0.1000000000E+01  0.2570463033E+00  0.5258382242E+00  0.3092210262E-17 -0.3860375343E+00  0.6605390272E+15  0.5311075209E+00  0.2988439223E-17 -0.3931963780E+00
  0.2570463033E+00  0.1000000000E+01  0.2570463033E+00  0.3315377228E+00  0.1940684189E-17 -0.2758433903E+00  0.6605390272E+15  0.3341026333E+00  0.1942978857E-17 -0.2809943809E+00
  0.1429536967E+00  0.1000000000E+01  0.2570463033E+00  0.1042195934E+00  0.1470161000E-17 -0.2750611321E+00  0.6605390272E+15  0.1009622914E+00  0.1471285565E-17 -0.2777814416E+00
  0.4698893521E-01  0.1000000000E+01  0.2570463033E+00  0.1267696309E-01  0.1050194159E-17 -0.4910036465E-01  0.6605390272E+15  0.1069095389E-01  0.1030257473E-17 -0.5064499973E-01
  0.0000000000E+00  0.1000000000E+01  0.2570463033E+00 -0.1410448417E-01 -0.3376778892E-20 -0.8034991389E-03  0.6605390272E+15 -0.1411991318E-01 -0.3168082085E-20 -0.1566759330E-02
  0.4000000000E+00  0.1000000000E+01  0.3530110648E+00  0.7637380178E+00  0.3964544035E-17 -0.6032461912E+00  0.6605390272E+15  0.7591884468E+00  0.3968002891E-17 -0.6138252823E+00
  0.3530110648E+00  0.1000000000E+01  0.3530110648E+00  0.5685263993E+00  0.3552101018E-17 -0.6212219773E+00  0.6605390272E+15  0.5698843491E+00  0.3549430125E-17 -0.6288178812E+00
  0.2570463033E+00  0.1000000000E+01  0.3530110648E+00  0.3598681851E+00  0.1586193452E-17 -0.4848399788E+00  0.6605390272E+15  0.3596519227E+00  0.1644338676E-17 -0.4886530598E+00
  0.1429536967E+00  0.1000000000E+01  0.3530110648E+00  0.1185483377E+00  0.1921044903E-17 -0.4165407242E+00  0.6605390272E+15  0.1139463521E+00  0.1934235767E-17 -0.4180311349E+00
  0.4698893521E-01  0.1000000000E+01  0.3530110648E+00  0.1725169562E-01  0.5835006820E-18 -0.1116790572E+00  0.6605390272E+15  0.1531549172E-01  0.5966767055E-18 -0.1131254105E+00
  0.0000000000E+00  0.1000000000E+01  0.3530110648E+00 -0.1413442984E-01  0.5919703232E-20 -0.9561258230E-03  0.6605390272E+15 -0.1422662651E-01  0.5989397909E-20 -0.1793593987E-02
  0.4000000000E+00  0.1000000000E+01  0.4000000000E+00  0.7551101127E+00  0.6135633049E-17 -0.7418799048E+00  0.6605390272E+15  0.7465219256E+00  0.6144587333E-17 -0.7494886883E+00
  0.3530110648E+00  0.1000000000E+01  0.4000000000E+00  0.6069126115E+00  0.5240407771E-17 -0.7467437037E+00  0.6605390272E+15  0.6060127221E+00  0.5228368757E-17 -0.7514693640E+00
  0.2570463033E+00  0.1000000000E+01  0.4000000000E+00  0.3696007304E+00  0.2222021163E-17 -0.5904990258E+00  0.6605390272E+15  0.3682981820E+00  0.2247403557E-17 -0.5924248932E+00
  0.1429536967E+00  0.1000000000E+01  0.4000000000E+00  0.1328827379E+00  0.2259870166E-17 -0.4868870109E+00  0.6605390272E+15  0.1279937668E+00  0.2227230629E-17 -0.4885923236E+00
  0.4698893521E-01  0.1000000000E+01  0.4000000000E+00  0.1432881107E-01  0.5879136756E-18 -0.1397540399E+00  0.6605390272E+15  0.1270970022E-01  0.5962119824E-18 -0.1413082114E+00
  0.0000000000E+00  0.1000000000E+01  0.4000000000E+00 -0.6667190001E-02  0.8203229809E-20 -0.2253567834E-02  0.6605390272E+15 -0.6760539084E-02  0.7772876020E-20 -0.3153990922E-02
ZONE I=6, J=6, K=1, F=POINT
  0.8000000000E+00  0.1000000000E+01  0.0000000000E+00  0.1841459901E-01 -0.8587565373E-19 -0.1144646541E-01  0.6605390272E+15  0.1952793574E-01 -0.8762133450E-19 -0.1140415387E-01
  0.7530110648E+00  0.1000000000E+01  0.0000000000E+00  0.3093731786E-02  0.9706059789E-19  0.6037249827E-02  0.6605390272E+15  0.4203369254E-02  0.1232763524E-18  0.6145664881E-02
  0.6570463033E+00  0.1000000000E+01  0.0000000000E+00  0.2415545978E-03  0.3032342137E-19  0.3082030491E-03  0.6605390272E+15  0.1231640996E-02  0.4444978671E-19  0.2931726630E-03
  0.5429536967E+00  0.1000000000E+01  0.0000000000E+00  0.1246683603E-02  0.3463742480E-19  0.7095850094E-02  0.6605390272E+15  0.2035186256E-02  0.5622724186E-19  0.7148784609E-02
  0.4469889352E+00  0.1000000000E+01  0.0000000000E+00 -0.1334056197E-02 -0.2274726544E-19  0.8473712274E-03  0.6605390272E+15 -0.4721845473E-03  0.4312982723E-20  0.8436878636E-03
  0.4000000000E+00  0.1000000000E+01  0.0000000000E+00  0.1496597802E-01  0.3176904716E-19  0.7463318665E-02  0.6605390272E+15  0.1601209790E-01  0.3215491502E-19  0.7733299652E-02
  0.8000000000E+00  0.1000000000E+01  0.4698893521E-01  0.3233147931E+00 -0.2396664608E-16  0.1948174868E-01  0.6605390272E+15  0.3274051177E+00 -0.2401058781E-16 -0.6105305285E-03
  0.7530110648E+00  0.1000000000E+01  0.4698893521E-01  0.5167981191E+00 -0.2327946307E-16 -0.3788520840E-01  0.6605390272E+15  0.5201956471E+00 -0.2345146734E-16 -0.5590105380E-01
  0.6570463033E+00  0.1000000000E+01  0.4698893521E-01  0.2991351080E+00 -0.4755719531E-17 -0.5202324694E-02  0.6605390272E+15  0.3017420132E+00 -0.4741500487E-17 -0.1672914298E-01
  0.5429536967E+00  0.1000000000E+01  0.4698893521E-01  0.3314715789E+00  0.4233533387E-17  0.2132719374E-02  0.6605390272E+15  0.3335223962E+00  0.4264438218E-17 -0.4530446662E-02
  0.4469889352E+00  0.1000000000E+01  0.4698893521E-01  0.2037779236E+00  0.3883213241E-17  0.4897334404E-02  0.6605390272E+15  0.2057556408E+00  0.3873146579E-17  0.2124995473E-02
  0.4000000000E+00  0.1000000000E+01  0.4698893521E-01  0.3073928670E+00  0.2719514118E-17 -0.4155464623E-01  0.6605390272E+15  0.3095225570E+00  0.2707416161E-17 -0.4279667948E-01
  0.8000000000E+00  0.1000000000E+01  0.1429536967E+00  0.1038445020E+01 -0.5485499109E-16 -0.3230603975E+00  0.6605390272E+15  0.1040754041E+01 -0.5477322995E-16 -0.3411559182E+00
  0.7530110648E+00  0.1000000000E+01  0.1429536967E+00  0.1331434517E+01 -0.3490898215E-16 -0.1746842544E+00  0.6605390272E+15  0.1329812622E+01 -0.3478216312E-16 -0.1920357722E+00
  0.6570463033E+00  0.1000000000E+01  0.1429536967E+00  0.8957431347E+00 -0.4138248396E-17 -0.1651164028E+00  0.6605390272E+15  0.8933574246E+00 -0.4048823145E-17 -0.1799378543E+00
  0.5429536967E+00  0.1000000000E+01  0.1429536967E+00  0.8334050467E+00  0.9448803046E-17 -0.2335675890E-01  0.6605390272E+15  0.8307386672E+00  0.9366658386E-17 -0.3335402830E-01
  0.4469889352E+00  0.1000000000E+01  0.1429536967E+00  0.5333885949E+00  0.9224688269E-17 -0.1128859644E+00  0.6605390272E+15  0.5308967435E+00  0.9270112027E-17 -0.1179512361E+00
  0.4000000000E+00  0.1000000000E+01  0.1429536967E+00  0.6504128146E+00  0.1034867851E-16 -0.9402731785E-01  0.6605390272E+15  0.6516873733E+00  0.1036462048E-16 -0.9785112686E-01
  0.8000000000E+00  0.1000000000E+01  0.2570463033E+00  0.2025758076E+01 -0.1469142788E-16 -0.8548289232E+00  0.6605390272E+15  0.2029167513E+01 -0.1468077006E-16 -0.8650650372E+00
  0.7530110648E+00  0.1000000000E+01  0.2570463033E+00  0.1901194131E+01 -0.9768146248E-17 -0.5948537671E+00  0.6605390272E+15  0.1901235796E+01 -0.9939230806E-17 -0.6064392476E+00
  0.6570463033E+00  0.1000000000E+01  0.2570463033E+00  0.1443958930E+01 -0.4341859458E-17 -0.5243678770E+00  0.6605390272E+15  0.1440630856E+01 -0.4241658286E-17 -0.5374536043E+00
  0.5429536967E+00  0.1000000000E+01  0.2570463033E+00  0.1115314208E+01  0.2457718035E-17 -0.2664933086E+00  0.6605390272E+15  0.1108404635E+01  0.2342390889E-17 -0.2782017530E+00
  0.4469889352E+00  0.1000000000E+01  0.2570463033E+00  0.7883384284E+00  0.4015934179E-17 -0.3764096001E+00  0.6605390272E+15  0.7825449217E+00  0.3896441495E-17 -0.3857825059E+00
  0.4000000000E+00  0.1000000000E+01  0.2570463033E+00  0.7376633996E+00  0.3569630071E-17 -0.3333704887E+00  0.6605390272E+15  0.7376743849E+00  0.3578555933E-17 -0.3418998623E+00
  0.8000000000E+00  0.1000000000E+01  0.3530110648E+00  0.2220377341E+01  0.1108545848E-18 -0.1333248691E+01  0.6605390272E+15  0.2229080889E+01  0.7973754644E-19 -0.1351925598E+01
  0.7530110648E+00  0.1000000000E+01  0.3530110648E+00  0.2127924864E+01  0.3557991971E-17 -0.1101923212E+01  0.6605390272E+15  0.2130000731E+01  0.3662509708E-17 -0.1122525498E+01
  0.6570463033E+00  0.1000000000E+01  0.3530110648E+00  0.1634585185E+01 -0.2280597654E-17 -0.9081113550E+00  0.6605390272E+15  0.1630765685E+01 -0.1846345892E-17 -0.9284083507E+00
  0.5429536967E+00  0.1000000000E+01  0.3530110648E+00  0.1237247446E+01 -0.3165932133E-17 -0.5990804354E+00  0.6605390272E+15  0.1228426954E+01 -0.2449485714E-17 -0.6170182957E+00
  0.4469889352E+00  0.1000000000E+01  0.3530110648E+00  0.8341238367E+00  0.3175953552E-17 -0.6423086062E+00  0.6605390272E+15  0.8250358853E+00  0.3277618491E-17 -0.6559092336E+00
  0.4000000000E+00  0.1000000000E+01  0.3530110648E+00  0.7960066242E+00  0.3937865598E-17 -0.6030480775E+00  0.6605390272E+15  0.7921447246E+00  0.3940874816E-17 -0.6136228066E+00
  0.8000000000E+00  0.1000000000E+01  0.4000000000E+00  0.2300455846E+01 -0.5572001126E-17 -0.1614277914E+01  0.6605390272E+15  0.2312889231E+01 -0.5561950843E-17 -0.1633489149E+01
  0.7530110648E+00  0.1000000000E+01  0.4000000000E+00  0.2083429847E+01 -0.2510805516E-17 -0.1323742330E+01  0.6605390272E+15  0.2087249649E+01 -0.2521406835E-17 -0.1346565657E+01
  0.6570463033E+00  0.1000000000E+01  0.4000000000E+00  0.1643048438E+01 -0.4364118236E-19 -0.1115881636E+01  0.6605390272E+15  0.1638824771E+01 -0.1275505912E-18 -0.1142483402E+01
  0.5429536967E+00  0.1000000000E+01  0.4000000000E+00  0.1226364965E+01  0.7329108112E-17 -0.8110671647E+00  0.6605390272E+15  0.1215338980E+01  0.6696178027E-17 -0.8333751544E+00
  0.4469889352E+00  0.1000000000E+01  0.4000000000E+00  0.8969374961E+00  0.7251721650E-17 -0.8029630845E+00  0.6605390272E+15  0.8839290631E+00  0.7096535733E-17 -0.8161796626E+00
  0.4000000000E+00  0.1000000000E+01  0.4000000000E+00  0.7666187214E+00  0.6155896925E-17 -0.7411625728E+00  0.6605390272E+15  0.7582849388E+00  0.6162528053E-17 -0.7487601409E+00
ZONE I=6, J=6, K=1, F=POINT
  0.1200000000E+01  0.1000000000E+01  0.0000000000E+00 -0.3037701208E-01  0.5675611478E-19  0.3701558463E-01  0.6605390272E+15 -0.2975652847E-01  0.5942676643E-19  0.3699472156E-01
  0.1153011065E+01  0.1000000000E+01  0.0000000000E+00 -0.3775167829E-02 -0.1716438980E-18 -0.9663200978E-02  0.6605390272E+15 -0.2973893946E-02 -0.1336873856E-18 -0.9631178133E-02
  0.1057046303E+01  0.1000000000E+01  0.0000000000E+00  0.3590380633E-02  0.5692144992E-19  0.5908109269E-02  0.6605390272E+15  0.4546943567E-02  0.8113941114E-19  0.5927101110E-02
  0.9429536967E+00  0.1000000000E+01  0.0000000000E+00 -0.1152527450E-02  0.1520028339E-20 -0.8296859015E-02  0.6605390272E+15 -0.2638223281E-03  0.2927013929E-20 -0.8271189446E-02
  0.8469889352E+00  0.1000000000E+01  0.0000000000E+00  0.4122095758E-02 -0.2384568219E-19  0.5412632662E-02  0.6605390272E+15  0.4912181869E-02 -0.2398244298E-19  0.5472602570E-02
  0.8000000000E+00  0.1000000000E+01  0.0000000000E+00 -0.2631762900E-01 -0.9550214001E-19 -0.1092360127E-01  0.6605390272E+15 -0.2556095657E-01 -0.9730973327E-19 -0.1086298262E-01
  0.1200000000E+01  0.1000000000E+01  0.4698893521E-01  0.2181059099E+01 -0.4216084177E-16 -0.2130956621E+00  0.6605390272E+15  0.2187394280E+01 -0.4241429169E-16 -0.2249842622E+00
  0.1153011065E+01  0.1000000000E+01  0.4698893521E-01  0.1491713950E+01 -0.2646705104E-16 -0.6505391060E-01  0.6605390272E+15  0.1497360408E+01 -0.2662729315E-16 -0.7757595210E-01
  0.1057046303E+01  0.1000000000E+01  0.4698893521E-01  0.1354869337E+01 -0.1278396443E-16 -0.9356910857E-01  0.6605390272E+15  0.1360235079E+01 -0.1273808915E-16 -0.1064590556E+00
  0.9429536967E+00  0.1000000000E+01  0.4698893521E-01  0.7510107228E+00 -0.1516125307E-16 -0.7549997119E-01  0.6605390272E+15  0.7566829181E+00 -0.1532186597E-16 -0.8993380664E-01
  0.8469889352E+00  0.1000000000E+01  0.4698893521E-01  0.6516384250E+00 -0.2806901700E-16 -0.6905057836E-01  0.6605390272E+15  0.6567670707E+00 -0.2827981261E-16 -0.8801084598E-01
  0.8000000000E+00  0.1000000000E+01  0.4698893521E-01  0.2630832045E+00 -0.2327564981E-16  0.2153490214E-01  0.6605390272E+15  0.2672225260E+00 -0.2332585609E-16  0.1394166480E-02
  0.1200000000E+01  0.1000000000E+01  0.1429536967E+00  0.5025474508E+01 -0.5883274364E-16 -0.6254740956E+00  0.6605390272E+15  0.5036564090E+01 -0.5900797270E-16 -0.6437790063E+00
  0.1153011065E+01  0.1000000000E+01  0.1429536967E+00  0.3569897563E+01 -0.6911158292E-16 -0.8286030222E+00  0.6605390272E+15  0.3576322416E+01 -0.6867796585E-16 -0.8467003404E+00
  0.1057046303E+01  0.1000000000E+01  0.1429536967E+00  0.3186846773E+01 -0.3998795998E-16 -0.6035802651E+00  0.6605390272E+15  0.3192441305E+01 -0.4001647590E-16 -0.6213313504E+00
  0.9429536967E+00  0.1000000000E+01  0.1429536967E+00  0.1940703020E+01 -0.3549835700E-16 -0.6993271737E+00  0.6605390272E+15  0.1949143746E+01 -0.3550655712E-16 -0.7176776655E+00
  0.8469889352E+00  0.1000000000E+01  0.1429536967E+00  0.1666736922E+01 -0.5129617800E-16 -0.3461181194E+00  0.6605390272E+15  0.1674140440E+01 -0.5137522807E-16 -0.3646975640E+00
  0.8000000000E+00  0.1000000000E+01  0.1429536967E+00  0.9551212850E+00 -0.5706296871E-16 -0.3246910385E+00  0.6605390272E+15  0.9591686020E+00 -0.5699064173E-16 -0.3427471311E+00
  0.1200000000E+01  0.1000000000E+01  0.2570463033E+00  0.5202296476E+01 -0.7761316777E-17 -0.1722845131E+01  0.6605390272E+15  0.5211189627E+01 -0.7691497468E-17 -0.1727571851E+01
  0.1153011065E+01  0.1000000000E+01  0.2570463033E+00  0.4668794519E+01 -0.3948368600E-16 -0.1961769729E+01  0.6605390272E+15  0.4676149733E+01 -0.4029157327E-16 -0.1969267708E+01
  0.1057046303E+01  0.1000000000E+01  0.2570463033E+00  0.3845737320E+01 -0.3430550665E-16 -0.1550257688E+01  0.6605390272E+15  0.3851753355E+01 -0.3429555960E-16 -0.1559685863E+01
  0.9429536967E+00  0.1000000000E+01  0.2570463033E+00  0.2902662560E+01 -0.3177735673E-16 -0.1582102206E+01  0.6605390272E+15  0.2910108070E+01 -0.3215347108E-16 -0.1590154186E+01
  0.8469889352E+00  0.1000000000E+01  0.2570463033E+00  0.2377564401E+01 -0.1642126449E-16 -0.9387316051E+00  0.6605390272E+15  0.2384591608E+01 -0.1631972113E-16 -0.9477370239E+00
  0.8000000000E+00  0.1000000000E+01  0.2570463033E+00  0.1987827619E+01 -0.1483710349E-16 -0.8573479220E+00  0.6605390272E+15  0.1992003973E+01 -0.1481854005E-16 -0.8672247511E+00
  0.1200000000E+01  0.1000000000E+01  0.3530110648E+00  0.5404415612E+01  0.3101742552E-16 -0.2851770453E+01  0.6605390272E+15  0.5421295253E+01  0.3104136122E-16 -0.2851184090E+01
  0.1153011065E+01  0.1000000000E+01  0.3530110648E+00  0.4683450912E+01  0.1111561069E-16 -0.2763914193E+01  0.6605390272E+15  0.4697082111E+01  0.1095702138E-16 -0.2766885535E+01
  0.1057046303E+01  0.1000000000E+01  0.3530110648E+00  0.3981023586E+01 -0.1058734105E-16 -0.2369614133E+01  0.6605390272E+15  0.3987262401E+01 -0.1050246864E-16 -0.2375583979E+01
  0.9429536967E+00  0.1000000000E+01  0.3530110648E+00  0.3071066920E+01 -0.1631810046E-16 -0.2147832742E+01  0.6605390272E+15  0.3079933023E+01 -0.1653065570E-16 -0.2155358381E+01
  0.8469889352E+00  0.1000000000E+01  0.3530110648E+00  0.2630734830E+01 -0.4622746812E-17 -0.1529000828E+01  0.6605390272E+15  0.2644548949E+01 -0.4102873856E-17 -0.1543519154E+01
  0.8000000000E+00  0.1000000000E+01  0.3530110648E+00  0.2173942672E+01  0.1753720828E-18 -0.1333505793E+01  0.6605390272E+15  0.2183315554E+01  0.1465856582E-18 -0.1352226101E+01
  0.1200000000E+01  0.1000000000E+01  0.4000000000E+00  0.5081086306E+01  0.3706124839E-16 -0.3145219683E+01  0.6605390272E+15  0.5100782119E+01  0.3706704934E-16 -0.3151766554E+01
  0.1153011065E+01  0.1000000000E+01  0.4000000000E+00  0.4724908437E+01  0.2721619027E-16 -0.3243769788E+01  0.6605390272E+15  0.4739792471E+01  0.2738424365E-16 -0.3251492298E+01
  0.1057046303E+01  0.1000000000E+01  0.4000000000E+00  0.3888161092E+01  0.1431548263E-17 -0.2725143073E+01  0.6605390272E+15  0.3895298786E+01  0.1402401220E-17 -0.2732779931E+01
  0.9429536967E+00  0.1000000000E+01  0.4000000000E+00  0.3105481196E+01 -0.1453197229E-16 -0.2474215749E+01  0.6605390272E+15  0.3116442594E+01 -0.1501296636E-16 -0.2487274130E+01
  0.8469889352E+00  0.1000000000E+01  0.4000000000E+00  0.2559633065E+01 -0.1091511573E-16 -0.1775368544E+01  0.6605390272E+15  0.2577083797E+01 -0.1063017831E-16 -0.1792449796E+01
  0.8000000000E+00  0.1000000000E+01  0.4000000000E+00  0.2296714997E+01 -0.5545622236E-17 -0.1617571018E+01  0.6605390272E+15  0.2309325890E+01 -0.5538099534E-17 -0.1636370842E+01
ZONE I=6, J=6, K=1, F=POINT
  0.1600000000E+01  0.1000000000E+01  0.0000000000E+00  0.1314843107E+00 -0.9159947714E-18 -0.7166294709E-01  0.6605390272E+15  0.1310884919E+00 -0.1031789504E-17 -0.7123908868E-01
  0.1553011065E+01  0.1000000000E+01  0.0000000000E+00  0.1149142584E-01 -0.1365247469E-17  0.4532733853E-01  0.6605390272E+15  0.1176824354E-01 -0.1409480171E-17  0.4528404815E-01
  0.1457046303E+01  0.1000000000E+01  0.0000000000E+00 -0.5986171135E-02 -0.1217181306E-18 -0.3314520383E-02  0.6605390272E+15 -0.5782101679E-02 -0.1414399250E-18 -0.3239417518E-02
  0.1342953697E+01  0.1000000000E+01  0.0000000000E+00  0.6661589511E-02  0.4774950884E-18  0.2975991425E-01  0.6605390272E+15  0.6912013002E-02  0.4921888062E-18  0.2971946157E-01
  0.1246988935E+01  0.1000000000E+01  0.0000000000E+00 -0.6185267256E-02  0.1379634176E-18 -0.8227429655E-02  0.6605390272E+15 -0.5775378261E-02  0.1348494738E-18 -0.8156492392E-02
  0.1200000000E+01  0.1000000000E+01  0.0000000000E+00  0.5923419822E-01  0.6101300944E-19  0.3704668578E-01  0.6605390272E+15  0.5978448854E-01  0.6408354687E-19  0.3704823826E-01
  0.1600000000E+01  0.1000000000E+01  0.4698893521E-01  0.2997766008E+01 -0.8848763392E-16  0.2171307041E+00  0.6605390272E+15  0.3000153617E+01 -0.8854349039E-16  0.2203601178E+00
  0.1553011065E+01  0.1000000000E+01  0.4698893521E-01  0.3482086610E+01 -0.4400824967E-16 -0.2857222855E+00  0.6605390272E+15  0.3487560310E+01 -0.4384329224E-16 -0.2847339389E+00
  0.1457046303E+01  0.1000000000E+01  0.4698893521E-01  0.2500142570E+01 -0.4611435707E-17 -0.9611711554E-01  0.6605390272E+15  0.2506234865E+01 -0.4792840713E-17 -0.9979779720E-01
  0.1342953697E+01  0.1000000000E+01  0.4698893521E-01  0.2490116266E+01  0.2863422147E-16 -0.6899999263E-01  0.6605390272E+15  0.2495306673E+01  0.2867351073E-16 -0.7758945827E-01
  0.1246988935E+01  0.1000000000E+01  0.4698893521E-01  0.1914598497E+01 -0.7007883166E-17 -0.3889163628E-01  0.6605390272E+15  0.1919812402E+01 -0.6775414558E-17 -0.4990534189E-01
  0.1200000000E+01  0.1000000000E+01  0.4698893521E-01  0.2279126428E+01 -0.4636258381E-16 -0.2187570099E+00  0.6605390272E+15  0.2283456534E+01 -0.4658936112E-16 -0.2302765406E+00
  0.1600000000E+01  0.1000000000E+01  0.1429536967E+00  0.6314009005E+01 -0.2664476172E-15 -0.1839551226E+01  0.6605390272E+15  0.6304444878E+01 -0.2660746870E-15 -0.1837120484E+01
  0.1553011065E+01  0.1000000000E+01  0.1429536967E+00  0.7986650478E+01 -0.1427736465E-15 -0.9997563595E+00  0.6605390272E+15  0.7996585991E+01 -0.1432672387E-15 -0.9986057661E+00
  0.1457046303E+01  0.1000000000E+01  0.1429536967E+00  0.5899537310E+01  0.3198461127E-16 -0.9664150107E+00  0.6605390272E+15  0.5912715698E+01  0.3261584113E-16 -0.9712417858E+00
  0.1342953697E+01  0.1000000000E+01  0.1429536967E+00  0.5841806155E+01  0.1008340157E-15 -0.2271932524E+00  0.6605390272E+15  0.5852142274E+01  0.1012212419E-15 -0.2396915238E+00
  0.1246988935E+01  0.1000000000E+01  0.1429536967E+00  0.4475133538E+01  0.2615556036E-16 -0.7577684791E+00  0.6605390272E+15  0.4484091669E+01  0.2572248896E-16 -0.7746877726E+00
  0.1200000000E+01  0.1000000000E+01  0.1429536967E+00  0.5191014913E+01 -0.6298395483E-16 -0.6200993792E+00  0.6605390272E+15  0.5192076271E+01 -0.6305214585E-16 -0.6390666213E+00
  0.1600000000E+01  0.1000000000E+01  0.2570463033E+00  0.1114146638E+02  0.1008697499E-15 -0.3736193994E+01  0.6605390272E+15  0.1115640228E+02  0.1008399267E-15 -0.3737202626E+01
  0.1553011065E+01  0.1000000000E+01  0.2570463033E+00  0.1002827093E+02  0.1246469874E-15 -0.2640798049E+01  0.6605390272E+15  0.1004489303E+02  0.1245997494E-15 -0.2638252982E+01
  0.1457046303E+01  0.1000000000E+01  0.2570463033E+00  0.8608139023E+01  0.1858202022E-15 -0.2476488570E+01  0.6605390272E+15  0.8627636403E+01  0.1868276191E-15 -0.2476742349E+01
  0.1342953697E+01  0.1000000000E+01  0.2570463033E+00  0.6940287498E+01  0.1334078394E-15 -0.1270714147E+01  0.6605390272E+15  0.6957262945E+01  0.1343521522E-15 -0.1274363840E+01
  0.1246988935E+01  0.1000000000E+01  0.2570463033E+00  0.5677305659E+01  0.4206438295E-16 -0.1964381043E+01  0.6605390272E+15  0.5689062796E+01  0.4259706192E-16 -0.1967934247E+01
  0.1200000000E+01  0.1000000000E+01  0.2570463033E+00  0.5241934157E+01 -0.8039415632E-17 -0.1713535066E+01  0.6605390272E+15  0.5250748405E+01 -0.7963400394E-17 -0.1720871727E+01
  0.1600000000E+01  0.1000000000E+01  0.3530110648E+00  0.9527796244E+01  0.2002560221E-15 -0.4324730916E+01  0.6605390272E+15  0.9540172290E+01  0.2001354009E-15 -0.4318854172E+01
  0.1553011065E+01  0.1000000000E+01  0.3530110648E+00  0.9669490885E+01  0.2066797021E-15 -0.4229785150E+01  0.6605390272E+15  0.9687713016E+01  0.2067813485E-15 -0.4227637904E+01
  0.1457046303E+01  0.1000000000E+01  0.3530110648E+00  0.8378885361E+01  0.1987281468E-15 -0.3742985421E+01  0.6605390272E+15  0.8400502235E+01  0.1999302493E-15 -0.3741992074E+01
  0.1342953697E+01  0.1000000000E+01  0.3530110648E+00  0.7040550416E+01  0.1506708996E-15 -0.2830178730E+01  0.6605390272E+15  0.7057129758E+01  0.1511710757E-15 -0.2828128091E+01
  0.1246988935E+01  0.1000000000E+01  0.3530110648E+00  0.5606382552E+01  0.6346959455E-16 -0.2930755304E+01  0.6605390272E+15  0.5619202740E+01  0.6315477879E-16 -0.2927478141E+01
  0.1200000000E+01  0.1000000000E+01  0.3530110648E+00  0.5481401516E+01  0.3113321976E-16 -0.2852252476E+01  0.6605390272E+15  0.5495279474E+01  0.3112826794E-16 -0.2851327782E+01
  0.1600000000E+01  0.1000000000E+01  0.4000000000E+00  0.9660697997E+01  0.2013323133E-15 -0.5107303379E+01  0.6605390272E+15  0.9680656010E+01  0.2012336025E-15 -0.5110170089E+01
  0.1553011065E+01  0.1000000000E+01  0.4000000000E+00  0.8945798590E+01  0.2188209717E-15 -0.4319773058E+01  0.6605390272E+15  0.8967630666E+01  0.2184880293E-15 -0.4322682375E+01
  0.1457046303E+01  0.1000000000E+01  0.4000000000E+00  0.8224509158E+01  0.1920214234E-15 -0.4333466009E+01  0.6605390272E+15  0.8244519716E+01  0.1918831546E-15 -0.4335491905E+01
  0.1342953697E+01  0.1000000000E+01  0.4000000000E+00  0.6734237376E+01  0.1591411641E-15 -0.3262153693E+01  0.6605390272E+15  0.6751864815E+01  0.1599883112E-15 -0.3262792808E+01
  0.1246988935E+01  0.1000000000E+01  0.4000000000E+00  0.5667903264E+01  0.6422635844E-16 -0.3494733790E+01  0.6605390272E+15  0.5681378186E+01  0.6419116040E-16 -0.3498601357E+01
  0.1200000000E+01  0.1000000000E+01  0.4000000000E+00  0.5054747540E+01  0.3732317034E-16 -0.3133457779E+01  0.6605390272E+15  0.5075774858E+01  0.3731790815E-16 -0.3142484910E+01
ZONE I=6, J=6, K=1, F=POINT
  0.2000000000E+01  0.1000000000E+01  0.0000000000E+00  0.2402342366E+01  0.7403523118E-19  0.2123403799E+02  0.6605390272E+15  0.2430204574E+01  0.9463563784E-19  0.2215519794E+02
  0.1953011065E+01  0.1000000000E+01  0.0000000000E+00  0.1292850298E+01 -0.3737653739E-16 -0.1373034142E+00  0.6605390272E+15  0.1296319032E+01 -0.3610417689E-16 -0.1504184845E+00
  0.1857046303E+01  0.1000000000E+01  0.0000000000E+00 -0.3053356156E+00 -0.1873107037E-16  0.1518304680E+00  0.6605390272E+15 -0.3066529289E+00 -0.1926427922E-16  0.1503598505E+00
  0.1742953697E+01  0.1000000000E+01  0.0000000000E+00  0.1356833756E+00  0.2267029255E-18 -0.3733385546E-01  0.6605390272E+15  0.1356284220E+00  0.1148929395E-18 -0.3698617557E-01
  0.1646988935E+01  0.1000000000E+01  0.0000000000E+00 -0.1255819370E+00  0.3199541331E-18  0.6070467441E-01  0.6605390272E+15 -0.1260103019E+00  0.2899227577E-18  0.5985903525E-01
  0.1600000000E+01  0.1000000000E+01  0.0000000000E+00  0.9003370135E-01 -0.9949127310E-18 -0.8377001934E-01  0.6605390272E+15  0.8918273595E-01 -0.1112707275E-17 -0.8197843087E-01
  0.2000000000E+01  0.1000000000E+01  0.4698893521E-01 -0.1214850096E-01  0.7467436256E-18  0.4848400877E+02  0.6605390272E+15 -0.5492484183E-01  0.6873680335E-18  0.4865830624E+02
  0.1953011065E+01  0.1000000000E+01  0.4698893521E-01  0.1096094624E+02  0.1364800118E-15  0.1467090527E+01  0.6605390272E+15  0.1095044365E+02  0.1352835094E-15  0.1485827249E+01
  0.1857046303E+01  0.1000000000E+01  0.4698893521E-01  0.1164956194E+02  0.2897379021E-15 -0.1886574339E+01  0.6605390272E+15  0.1165361088E+02  0.2901618967E-15 -0.1883615051E+01
  0.1742953697E+01  0.1000000000E+01  0.4698893521E-01  0.5771023517E+01 -0.3948474266E-16 -0.6499058215E+00  0.6605390272E+15  0.5775581747E+01 -0.3914274195E-16 -0.6512525071E+00
  0.1646988935E+01  0.1000000000E+01  0.4698893521E-01  0.4467616949E+01 -0.1220008665E-15 -0.6386588660E+00  0.6605390272E+15  0.4467507625E+01 -0.1221936276E-15 -0.6339494150E+00
  0.1600000000E+01  0.1000000000E+01  0.4698893521E-01  0.2834150210E+01 -0.8564694072E-16  0.2029502947E+00  0.6605390272E+15  0.2845583088E+01 -0.8551277167E-16  0.2008801504E+00
  0.2000000000E+01  0.1000000000E+01  0.1429536967E+00 -0.2817075975E+00  0.2728351889E-17  0.5050477821E+02  0.6605390272E+15 -0.2573486778E+00  0.2748749646E-17  0.5044075070E+02
  0.1953011065E+01  0.1000000000E+01  0.1429536967E+00  0.2791561901E+01 -0.5132153889E-15  0.1639983776E+02  0.6605390272E+15  0.2778399254E+01 -0.5130596813E-15  0.1643834283E+02
  0.1857046303E+01  0.1000000000E+01  0.1429536967E+00  0.1272907380E+02 -0.2605198010E-15 -0.3606186273E+01  0.6605390272E+15  0.1273046565E+02 -0.2608328353E-15 -0.3596685689E+01
  0.1742953697E+01  0.1000000000E+01  0.1429536967E+00  0.9996119361E+01 -0.2333618960E-16 -0.4086636978E+01  0.6605390272E+15  0.9998319242E+01 -0.2364272671E-16 -0.4086824630E+01
  0.1646988935E+01  0.1000000000E+01  0.1429536967E+00  0.9319499801E+01 -0.1596225021E-15 -0.2092464212E+01  0.6605390272E+15  0.9318217130E+01 -0.1593842157E-15 -0.2088780687E+01
  0.1600000000E+01  0.1000000000E+01  0.1429536967E+00  0.5943058577E+01 -0.2829756124E-15 -0.1839546442E+01  0.6605390272E+15  0.5973740722E+01 -0.2829622474E-15 -0.1841723725E+01
  0.2000000000E+01  0.1000000000E+01  0.2570463033E+00  0.1916881087E-01  0.1115496971E-17  0.4987448740E+02  0.6605390272E+15  0.1825316730E-01  0.1074957695E-17  0.4987828285E+02