TITLE = "Generated from ../MESH/Convergence_0000000000.hmesh and Convergence_0000008900.hsol"
VARIABLES = "x","y","z","veloT_x","veloT_y","veloT_z","slr_4","velo_x","velo_y","velo_z"
ZONE I=6, J=6, K=1, F=POINT
  0.4000000000E+00  0.1000000000E+01  0.0000000000E+00  0.2767863781E-01  0.7364010197E-19  0.7500384425E-02  0.7311964644E+14 -0.8176676376E-01  0.2738526944E-19  0.8085407051E-02
  0.3530110648E+00  0.1000000000E+01  0.0000000000E+00  0.3366832605E-01  0.2724446331E-19 -0.1060298736E-02  0.7311964644E+14 -0.7679763694E-01  0.4391383952E-19  0.5655289277E-03
  0.2570463033E+00  0.1000000000E+01  0.0000000000E+00  0.2396919498E-01  0.9645389154E-20  0.1101478531E-02  0.7311964644E+14 -0.6223240954E-01  0.1770214542E-19  0.4001395639E-02
  0.1429536967E+00  0.1000000000E+01  0.0000000000E+00  0.2177685671E-01  0.4052105177E-21  0.1747294936E-03  0.7311964643E+14 -0.5706648613E-01  0.4701823937E-20 -0.3131327785E-03
  0.4698893521E-01  0.1000000000E+01  0.0000000000E+00  0.2270198810E-01  0.6276237390E-20 -0.3610017878E-02  0.7311964643E+14 -0.3831469519E-01  0.7926606237E-21  0.4985676120E-02
  0.0000000000E+00  0.1000000000E+01  0.0000000000E+00 -0.3018879142E-02 -0.8763724639E-22 -0.2188128431E-02  0.7311964643E+14 -0.1034108178E-01  0.6765483987E-23  0.5193920115E-02
  0.4000000000E+00  0.1000000000E+01  0.4698893521E-01  0.5671226565E+00  0.1855768704E-17 -0.2689962570E+00  0.7311964644E+14  0.2681117446E+00  0.3564035997E-17 -0.5505374579E+00
  0.3530110648E+00  0.1000000000E+01  0.4698893521E-01  0.3860878073E+00  0.8130958060E-18 -0.2512959986E+00  0.7311964644E+14  0.9793268854E-01  0.4124381728E-17 -0.4599357342E+00
  0.2570463033E+00  0.1000000000E+01  0.4698893521E-01  0.2797407475E+00  0.8296309488E-18 -0.2403177702E+00  0.7311964643E+14  0.5127924733E-01  0.9656754510E-18 -0.3507409870E+00
  0.1429536967E+00  0.1000000000E+01  0.4698893521E-01  0.1670050536E+00  0.7635627201E-18 -0.2220436454E+00  0.7311964643E+14 -0.5056498005E-01  0.1818080312E-18 -0.1978880841E+00
  0.4698893521E-01  0.1000000000E+01  0.4698893521E-01  0.1187915839E+00  0.3213044243E-18 -0.1705351598E+00  0.7311964643E+14 -0.3554408199E-01  0.1326202174E-18 -0.4959831677E-01
  0.0000000000E+00  0.1000000000E+01  0.4698893521E-01 -0.1270907588E-01 -0.1276201779E-20 -0.1958495936E-01  0.7311964643E+14 -0.2044921018E-01  0.1592073697E-20  0.4028947223E-01
  0.4000000000E+00  0.1000000000E+01  0.1429536967E+00  0.1003589543E+01  0.1520325704E-16 -0.3908854940E+00  0.7311964644E+14  0.5556017237E+00  0.9004005028E-17 -0.8188440570E+00
  0.3530110648E+00  0.1000000000E+01  0.1429536967E+00  0.6108165540E+00  0.8366464762E-17 -0.4158267521E+00  0.7311964643E+14  0.1965163876E+00  0.1120174121E-16 -0.7954569855E+00
  0.2570463033E+00  0.1000000000E+01  0.1429536967E+00  0.4363719435E+00  0.3138018880E-17 -0.3381494239E+00  0.7311964643E+14  0.6416250546E-01  0.2887093079E-17 -0.5772128498E+00
  0.1429536967E+00  0.1000000000E+01  0.1429536967E+00  0.1818310104E+00  0.1214697872E-17 -0.3488822143E+00  0.7311964643E+14 -0.2012449897E+00  0.1193539611E-17 -0.3761103934E+00
  0.4698893521E-01  0.1000000000E+01  0.1429536967E+00  0.2656286232E-01  0.1178339551E-17 -0.1765939778E+00  0.7311964643E+14 -0.2124352365E+00  0.5945536722E-18 -0.4663467637E-01
  0.0000000000E+00  0.1000000000E+01  0.1429536967E+00 -0.2445392489E-01 -0.1039755373E-19 -0.1920415202E-01  0.7311964643E+14 -0.2177635946E-01  0.3272742195E-20  0.4719782682E-01
  0.4000000000E+00  0.1000000000E+01  0.2570463033E+00  0.1339907358E+01  0.5611022728E-17 -0.6194276872E+00  0.7311964643E+14  0.7386275703E+00  0.5083761266E-17 -0.1011893938E+01
  0.3530110648E+00  0.1000000000E+01  0.2570463033E+00  0.9088499174E+00  0.1273324818E-17 -0.7296024882E+00  0.7311964643E+14  0.3537554190E+00 -0.2978573799E-17 -0.1024822214E+01
  0.2570463033E+00  0.1000000000E+01  0.2570463033E+00  0.5781488038E+00  0.3047455565E-17 -0.5904195784E+00  0.7311964643E+14  0.3946199024E-01  0.3077381956E-17 -0.7755866231E+00
  0.1429536967E+00  0.1000000000E+01  0.2570463033E+00  0.2094960670E+00  0.2081207446E-17 -0.4824106574E+00  0.7311964643E+14 -0.3764241759E+00  0.2125672285E-17 -0.5073143167E+00
  0.4698893521E-01  0.1000000000E+01  0.2570463033E+00 -0.4066927738E-01 -0.8239877429E-19 -0.1542632975E+00  0.7311964643E+14 -0.4018725723E+00  0.1315545475E-17 -0.4733082232E-01
  0.0000000000E+00  0.1000000000E+01  0.2570463033E+00 -0.1612873171E-01  0.4669193846E-20  0.2455668612E-04  0.7311964643E+14 -0.1503660831E-01 -0.1284849851E-19  0.4460345244E-01
  0.4000000000E+00  0.1000000000E+01  0.3530110648E+00  0.1797834494E+01  0.3943146089E-17 -0.1265459045E+01  0.7311964643E+14  0.8032742907E+00  0.4732053692E-17 -0.1618949550E+01
  0.3530110648E+00  0.1000000000E+01  0.3530110648E+00  0.1097945718E+01  0.3831652919E-17 -0.1290036893E+01  0.7311964643E+14  0.3733733358E+00  0.3918438123E-17 -0.1512911904E+01
  0.2570463033E+00  0.1000000000E+01  0.3530110648E+00  0.5679195082E+00  0.7337897519E-17 -0.1000364416E+01  0.7311964643E+14 -0.6060833990E-01  0.9120872588E-17 -0.1126839144E+01
  0.1429536967E+00  0.1000000000E+01  0.3530110648E+00  0.1266623669E+00  0.4005778341E-17 -0.6984500370E+00  0.7311964643E+14 -0.6025487571E+00  0.3804937574E-17 -0.6824232019E+00
  0.4698893521E-01  0.1000000000E+01  0.3530110648E+00 -0.1326831771E+00  0.1335308238E-17 -0.2062017436E+00  0.7311964643E+14 -0.5613692805E+00  0.2434021771E-18 -0.8521005454E-01
  0.0000000000E+00  0.1000000000E+01  0.3530110648E+00 -0.1773248954E-01 -0.2516741153E-20  0.1705229302E-01  0.7311964643E+14 -0.1492778982E-01 -0.6404834646E-20  0.5092707282E-01
  0.4000000000E+00  0.1000000000E+01  0.4000000000E+00  0.1814465490E+01  0.5653131019E-17 -0.1841963214E+01  0.7311964643E+14  0.7043198692E+00  0.5460749576E-17 -0.2117213679E+01
  0.3530110648E+00  0.1000000000E+01  0.4000000000E+00  0.1107453781E+01  0.5699797915E-17 -0.1563400893E+01  0.7311964643E+14  0.3277180018E+00  0.6943307991E-17 -0.1840002851E+01
  0.2570463033E+00  0.1000000000E+01  0.4000000000E+00  0.5335464386E+00  0.4217196040E-18 -0.1102759598E+01  0.7311964643E+14 -0.1450824451E+00 -0.1105557633E-17 -0.1291822475E+01
  0.1429536967E+00  0.1000000000E+01  0.4000000000E+00  0.7475945834E-01  0.3538037443E-19 -0.7408640846E+00  0.7311964643E+14 -0.7208426715E+00  0.2315733938E-18 -0.7663367557E+00
  0.4698893521E-01  0.1000000000E+01  0.4000000000E+00 -0.1980314657E+00  0.5028952847E-18 -0.1894487032E+00  0.7311964643E+14 -0.6548960524E+00  0.2073709534E-18 -0.1080289026E+00
  0.0000000000E+00  0.1000000000E+01  0.4000000000E+00 -0.1009657769E-01  0.5081890127E-20  0.2936305245E-01  0.7311964643E+14 -0.6932715929E-02  0.1731358129E-19  0.4338560609E-01
ZONE I=6, J=6, K=1, F=POINT
  0.8000000000E+00  0.1000000000E+01  0.0000000000E+00  0.1236649385E+00  0.4424223369E-19 -0.1430003709E-01  0.7311964645E+14 -0.9636107161E-01 -0.2112305053E-19 -0.1180926640E-01
  0.7530110648E+00  0.1000000000E+01  0.0000000000E+00  0.9716974893E-01  0.2454827327E-17  0.3716272570E-02  0.7311964645E+14 -0.1132609384E+00 -0.2333963425E-17  0.6938088679E-02
  0.6570463033E+00  0.1000000000E+01  0.0000000000E+00  0.7513110355E-01  0.9554655522E-18 -0.2736105701E-02  0.7311964645E+14 -0.1105076111E+00 -0.1458465641E-17  0.2522014676E-02
  0.5429536967E+00  0.1000000000E+01  0.0000000000E+00  0.6111901524E-01  0.1567655251E-17  0.3839646015E-02  0.7311964644E+14 -0.9065777824E-01 -0.2390486896E-17  0.1030817883E-01
  0.4469889352E+00  0.1000000000E+01  0.0000000000E+00  0.4746163682E-01  0.1487620453E-17 -0.1448747298E-02  0.7311964644E+14 -0.7654248187E-01 -0.2315847169E-17  0.3154618777E-02
  0.4000000000E+00  0.1000000000E+01  0.0000000000E+00  0.5563250584E-01  0.7661849539E-19  0.7165532384E-02  0.7311964644E+14 -0.5571863028E-01  0.3271554415E-19  0.7758740113E-02
  0.8000000000E+00  0.1000000000E+01  0.4698893521E-01  0.1005234071E+01 -0.2914871380E-16 -0.9086122283E-01  0.7311964645E+14  0.5703925900E+00 -0.2422971404E-16 -0.6000209269E+00
  0.7530110648E+00  0.1000000000E+01  0.4698893521E-01  0.1135468956E+01 -0.4948506402E-16 -0.1593050008E+00  0.7311964645E+14  0.7145133049E+00 -0.2475839773E-16 -0.6710012397E+00
  0.6570463033E+00  0.1000000000E+01  0.4698893521E-01  0.8048881310E+00  0.1185707359E-17 -0.9439949288E-01  0.7311964645E+14  0.4265925018E+00 -0.4245766282E-17 -0.6328556615E+00
  0.5429536967E+00  0.1000000000E+01  0.4698893521E-01  0.7493751889E+00  0.1104863750E-16 -0.8445444094E-01  0.7311964644E+14  0.4029392351E+00  0.4826544151E-17 -0.6052901951E+00
  0.4469889352E+00  0.1000000000E+01  0.4698893521E-01  0.5546142928E+00  0.2664125705E-17 -0.1692590768E+00  0.7311964644E+14  0.2296955865E+00  0.4976230926E-17 -0.5465646424E+00
  0.4000000000E+00  0.1000000000E+01  0.4698893521E-01  0.6101758392E+00  0.1571709346E-17 -0.2698035769E+00  0.7311964644E+14  0.3109206596E+00  0.3306433744E-17 -0.5513118757E+00
  0.8000000000E+00  0.1000000000E+01  0.1429536967E+00  0.2099124084E+01 -0.3442108936E-16 -0.3801192024E+00  0.7311964645E+14  0.1669009168E+01 -0.4664006979E-16 -0.1091876901E+01
  0.7530110648E+00  0.1000000000E+01  0.1429536967E+00  0.2267934567E+01 -0.3504973679E-16 -0.2751091922E+00  0.7311964645E+14  0.1835944575E+01 -0.2741115437E-16 -0.9793531358E+00
  0.6570463033E+00  0.1000000000E+01  0.1429536967E+00  0.1638449244E+01 -0.1939282676E-16 -0.3573495763E+00  0.7311964645E+14  0.1219319462E+01 -0.2711367142E-17 -0.9832805784E+00
  0.5429536967E+00  0.1000000000E+01  0.1429536967E+00  0.1444831506E+01  0.2319861154E-16 -0.2986950413E+00  0.7311964644E+14  0.1013207713E+01  0.1049205939E-16 -0.8074923792E+00
  0.4469889352E+00  0.1000000000E+01  0.1429536967E+00  0.1032428908E+01  0.9143174986E-17 -0.4093554403E+00  0.7311964644E+14  0.5767660883E+00  0.1460333635E-16 -0.8667084569E+00
  0.4000000000E+00  0.1000000000E+01  0.1429536967E+00  0.1055493745E+01  0.1605889259E-16 -0.3903094219E+00  0.7311964644E+14  0.6064432171E+00  0.9766532514E-17 -0.8183160996E+00
  0.8000000000E+00  0.1000000000E+01  0.2570463033E+00  0.3516627072E+01 -0.8822818470E-17 -0.1057797490E+01  0.7311964645E+14  0.3079425364E+01 -0.9517814179E-17 -0.1753200923E+01
  0.7530110648E+00  0.1000000000E+01  0.2570463033E+00  0.3215589988E+01 -0.8737265395E-17 -0.8243579942E+00  0.7311964645E+14  0.2737746729E+01 -0.1601491105E-16 -0.1504949445E+01
  0.6570463033E+00  0.1000000000E+01  0.2570463033E+00  0.2424285501E+01 -0.1355624167E-16 -0.6408542996E+00  0.7311964645E+14  0.1944719147E+01 -0.1385215557E-18 -0.1366802149E+01
  0.5429536967E+00  0.1000000000E+01  0.2570463033E+00  0.1949601629E+01  0.1307741314E-16 -0.2219378256E+00  0.7311964644E+14  0.1435254990E+01  0.4611514024E-17 -0.9958202821E+00
  0.4469889352E+00  0.1000000000E+01  0.2570463033E+00  0.1570772137E+01  0.5613741383E-17 -0.5195358656E+00  0.7311964644E+14  0.9798905367E+00 -0.8896165268E-18 -0.1067471422E+01
  0.4000000000E+00  0.1000000000E+01  0.2570463033E+00  0.1370680927E+01  0.5720258589E-17 -0.6186085398E+00  0.7311964643E+14  0.7675873043E+00  0.5113498421E-17 -0.1011217490E+01
  0.8000000000E+00  0.1000000000E+01  0.3530110648E+00  0.4071941874E+01 -0.3466051996E-18 -0.2101935710E+01  0.7311964645E+14  0.3621502179E+01  0.6497394131E-18 -0.2853273719E+01
  0.7530110648E+00  0.1000000000E+01  0.3530110648E+00  0.3674124323E+01  0.3732860295E-16 -0.1935481534E+01  0.7311964645E+14  0.3192429244E+01  0.9909874046E-17 -0.2665346149E+01
  0.6570463033E+00  0.1000000000E+01  0.3530110648E+00  0.2492194798E+01 -0.2874113746E-17 -0.1580014758E+01  0.7311964645E+14  0.2306809694E+01  0.1733372196E-16 -0.2552360997E+01
  0.5429536967E+00  0.1000000000E+01  0.3530110648E+00  0.2244608638E+01 -0.3325556924E-16 -0.9398878499E+00  0.7311964644E+14  0.1620781282E+01  0.1661064480E-16 -0.2275198897E+01
  0.4469889352E+00  0.1000000000E+01  0.3530110648E+00  0.2210622642E+01  0.8655277438E-17 -0.1163945446E+01  0.7311964644E+14  0.9724983577E+00  0.1174519093E-16 -0.1883154245E+01
  0.4000000000E+00  0.1000000000E+01  0.3530110648E+00  0.1827808233E+01  0.3763536910E-17 -0.1264863731E+01  0.7311964643E+14  0.8374317083E+00  0.4617998950E-17 -0.1619077389E+01
  0.8000000000E+00  0.1000000000E+01  0.4000000000E+00  0.4364370713E+01 -0.9945075023E-17 -0.2763411887E+01  0.7311964645E+14  0.3949605195E+01 -0.1003407200E-16 -0.3386054833E+01
  0.7530110648E+00  0.1000000000E+01  0.4000000000E+00  0.3823330806E+01  0.7033964750E-18 -0.2670039537E+01  0.7311964645E+14  0.3306841021E+01  0.1073562327E-18 -0.3254336511E+01
  0.6570463033E+00  0.1000000000E+01  0.4000000000E+00  0.2522184308E+01 -0.4510428894E-17 -0.2754787678E+01  0.7311964644E+14  0.2576462809E+01 -0.9639316258E-17 -0.3484670389E+01
  0.5429536967E+00  0.1000000000E+01  0.4000000000E+00  0.2264060641E+01  0.8022329653E-17 -0.2367820411E+01  0.7311964644E+14  0.1583668078E+01 -0.1705436191E-16 -0.3516445201E+01
  0.4469889352E+00  0.1000000000E+01  0.4000000000E+00  0.2401519690E+01  0.3672208615E-16 -0.2133885036E+01  0.7311964643E+14  0.7071527441E+00  0.1636260271E-17 -0.2673679939E+01
  0.4000000000E+00  0.1000000000E+01  0.4000000000E+00  0.1819653786E+01  0.5475929017E-17 -0.1839756127E+01  0.7311964643E+14  0.7155616066E+00  0.5421941355E-17 -0.2116846635E+01
ZONE I=6, J=6, K=1, F=POINT
  0.1200000000E+01  0.1000000000E+01  0.0000000000E+00  0.1524950575E+00  0.1865758015E-18  0.3498714462E-01  0.7311964648E+14 -0.1128245386E+00  0.1324341680E-18  0.3431644199E-01
  0.1153011065E+01  0.1000000000E+01  0.0000000000E+00  0.1736289363E+00  0.8524418398E-17 -0.1152232112E-01  0.7311964648E+14 -0.9206535015E-01 -0.3585123784E-17 -0.1139093778E-01
  0.1057046303E+01  0.1000000000E+01  0.0000000000E+00  0.1636505808E+00  0.4175620387E-17  0.3660477530E-02  0.7311964647E+14 -0.9593414049E-01 -0.2537609902E-17  0.4911317979E-02
  0.9429536967E+00  0.1000000000E+01  0.0000000000E+00  0.1355795559E+00  0.2281363191E-18 -0.1064399840E-01  0.7311964646E+14 -0.1099847361E+00  0.1318912153E-18 -0.8899126498E-02
  0.8469889352E+00  0.1000000000E+01  0.0000000000E+00  0.1200544392E+00  0.1449514782E-19  0.3034993944E-02  0.7311964646E+14 -0.1093768755E+00  0.2613207582E-19  0.5624613632E-02
  0.8000000000E+00  0.1000000000E+01  0.0000000000E+00  0.7759321719E-01  0.4879099738E-19 -0.1376926825E-01  0.7311964645E+14 -0.1418707139E+00 -0.3190417513E-19 -0.1126201435E-01
  0.1200000000E+01  0.1000000000E+01  0.4698893521E-01  0.3145868519E+01 -0.7514311185E-16  0.1372589507E+00  0.7311964648E+14  0.2731255426E+01 -0.5613307567E-16 -0.2658451409E+00
  0.1153011065E+01  0.1000000000E+01  0.4698893521E-01  0.2452589228E+01 -0.4933954437E-16  0.2273881908E+00  0.7311964648E+14  0.2036965170E+01 -0.3558711553E-16 -0.1877413125E+00
  0.1057046303E+01  0.1000000000E+01  0.4698893521E-01  0.2268851563E+01 -0.3370224008E-17  0.7252334478E-01  0.7311964647E+14  0.1835674458E+01 -0.9301089877E-17 -0.3844851423E+00
  0.9429536967E+00  0.1000000000E+01  0.4698893521E-01  0.1576223744E+01 -0.3139322394E-16 -0.3774210290E-01  0.7311964646E+14  0.1134507464E+01 -0.1947310004E-16 -0.5234782723E+00
  0.8469889352E+00  0.1000000000E+01  0.4698893521E-01  0.1391554785E+01 -0.5231676744E-16 -0.1385190801E+00  0.7311964646E+14  0.9580296893E+00 -0.3256614027E-16 -0.6430876074E+00
  0.8000000000E+00  0.1000000000E+01  0.4698893521E-01  0.9430849606E+00 -0.2857111963E-16 -0.8882139403E-01  0.7311964645E+14  0.5099857027E+00 -0.2360838100E-16 -0.5979901139E+00
  0.1200000000E+01  0.1000000000E+01  0.1429536967E+00  0.6594919464E+01 -0.8434700848E-16 -0.6620574978E-01  0.7311964648E+14  0.6207552800E+01 -0.7388870276E-16 -0.6603370878E+00
  0.1153011065E+01  0.1000000000E+01  0.1429536967E+00  0.5173752947E+01 -0.2456697065E-16 -0.3503089648E+00  0.7311964648E+14  0.4797475470E+01 -0.4220578629E-16 -0.9590922130E+00
  0.1057046303E+01  0.1000000000E+01  0.1429536967E+00  0.4692451437E+01 -0.3942468720E-16 -0.3049691962E+00  0.7311964647E+14  0.4311138302E+01 -0.3888426258E-16 -0.9519827387E+00
  0.9429536967E+00  0.1000000000E+01  0.1429536967E+00  0.3285890863E+01 -0.3276171414E-16 -0.5730546619E+00  0.7311964646E+14  0.2873436836E+01 -0.3306824714E-16 -0.1280580062E+01
  0.8469889352E+00  0.1000000000E+01  0.1429536967E+00  0.2868916450E+01 -0.6412197077E-16 -0.3461468612E+00  0.7311964646E+14  0.2437557778E+01 -0.5075605138E-16 -0.1062157001E+01
  0.8000000000E+00  0.1000000000E+01  0.1429536967E+00  0.2013685847E+01 -0.3625489830E-16 -0.3820585657E+00  0.7311964645E+14  0.1585183522E+01 -0.4867792340E-16 -0.1093636542E+01
  0.1200000000E+01  0.1000000000E+01  0.2570463033E+00  0.7455446203E+01 -0.2073915922E-16 -0.1239841360E+01  0.7311964649E+14  0.7117918812E+01 -0.2109482489E-16 -0.1823179381E+01
  0.1153011065E+01  0.1000000000E+01  0.2570463033E+00  0.7000949601E+01 -0.1491293068E-15 -0.1581021477E+01  0.7311964649E+14  0.6647201701E+01 -0.1192897744E-15 -0.2181840868E+01
  0.1057046303E+01  0.1000000000E+01  0.2570463033E+00  0.6061467802E+01 -0.3334337890E-16 -0.1426282705E+01  0.7311964648E+14  0.5712494342E+01 -0.3400055493E-16 -0.2032227890E+01
  0.9429536967E+00  0.1000000000E+01  0.2570463033E+00  0.4826661650E+01 -0.7738066743E-16 -0.1703406349E+01  0.7311964647E+14  0.4460214736E+01 -0.5736158208E-16 -0.2323203853E+01
  0.8469889352E+00  0.1000000000E+01  0.2570463033E+00  0.4036972748E+01  0.1436999289E-16 -0.1119566836E+01  0.7311964646E+14  0.3619938142E+01 -0.8299000730E-17 -0.1801571951E+01
  0.8000000000E+00  0.1000000000E+01  0.2570463033E+00  0.3478037734E+01 -0.9625232016E-17 -0.1060868376E+01  0.7311964645E+14  0.3040358286E+01 -0.1020020093E-16 -0.1755619302E+01
  0.1200000000E+01  0.1000000000E+01  0.3530110648E+00  0.8245958814E+01  0.7584202709E-17 -0.2453811896E+01  0.7311964650E+14  0.7928432745E+01  0.7404531476E-17 -0.3070873788E+01
  0.1153011065E+01  0.1000000000E+01  0.3530110648E+00  0.7620184650E+01 -0.2213122119E-16 -0.2531725087E+01  0.7311964649E+14  0.7300798131E+01 -0.1818318251E-16 -0.3159534485E+01
  0.1057046303E+01  0.1000000000E+01  0.3530110648E+00  0.6844360161E+01 -0.2554640800E-16 -0.2495996204E+01  0.7311964648E+14  0.6472358630E+01 -0.1597869566E-16 -0.3131936440E+01
  0.9429536967E+00  0.1000000000E+01  0.3530110648E+00  0.5497427038E+01 -0.5482816898E-16 -0.2665653815E+01  0.7311964647E+14  0.5172368720E+01 -0.3857062939E-16 -0.3288625259E+01
  0.8469889352E+00  0.1000000000E+01  0.3530110648E+00  0.4620703300E+01  0.2040314728E-16 -0.2229993675E+01  0.7311964646E+14  0.4303985662E+01  0.1746760285E-16 -0.2941113312E+01
  0.8000000000E+00  0.1000000000E+01  0.3530110648E+00  0.4024879802E+01 -0.6045999604E-18 -0.2102419104E+01  0.7311964645E+14  0.3575353741E+01  0.3568498156E-18 -0.2853871766E+01
  0.1200000000E+01  0.1000000000E+01  0.4000000000E+00  0.8215156313E+01  0.5945586161E-17 -0.2818588886E+01  0.7311964650E+14  0.7885098690E+01  0.5759887450E-17 -0.3362649199E+01
  0.1153011065E+01  0.1000000000E+01  0.4000000000E+00  0.7939323659E+01  0.1895048224E-16 -0.3103695988E+01  0.7311964649E+14  0.7626956860E+01  0.2075366902E-16 -0.3636767425E+01
  0.1057046303E+01  0.1000000000E+01  0.4000000000E+00  0.7044216011E+01 -0.5288889760E-17 -0.2931583736E+01  0.7311964648E+14  0.6672618755E+01 -0.6677094181E-17 -0.3479232595E+01
  0.9429536967E+00  0.1000000000E+01  0.4000000000E+00  0.5812999613E+01 -0.5082238612E-16 -0.3080464879E+01  0.7311964647E+14  0.5499745435E+01 -0.4562200850E-16 -0.3663449907E+01
  0.8469889352E+00  0.1000000000E+01  0.4000000000E+00  0.4780209972E+01 -0.7381483515E-17 -0.2769236173E+01  0.7311964646E+14  0.4504174098E+01 -0.9417014814E-17 -0.3358528208E+01
  0.8000000000E+00  0.1000000000E+01  0.4000000000E+00  0.4363376922E+01 -0.1009723902E-16 -0.2766370621E+01  0.7311964645E+14  0.3946600994E+01 -0.1015068525E-16 -0.3389273187E+01
ZONE I=6, J=6, K=1, F=POINT
  0.1600000000E+01  0.1000000000E+01  0.0000000000E+00  0.3894476849E+00 -0.7336063145E-18 -0.8422140558E-01  0.7311964651E+14  0.1220598617E+00 -0.8141769510E-18 -0.7765859274E-01
  0.1553011065E+01  0.1000000000E+01  0.0000000000E+00  0.2628220815E+00 -0.1372757252E-16  0.4310041753E-01  0.7311964650E+14 -0.2951073164E-02 -0.1028326005E-17  0.4369427708E-01
  0.1457046303E+01  0.1000000000E+01  0.0000000000E+00  0.2240000392E+00 -0.5363095905E-17 -0.5968925555E-02  0.7311964650E+14 -0.4017335881E-01  0.8379058467E-18 -0.6100650345E-02
  0.1342953697E+01  0.1000000000E+01  0.0000000000E+00  0.2140374457E+00  0.1204269912E-16  0.2746622173E-01  0.7311964649E+14 -0.5034203183E-01 -0.2606899073E-17  0.2714220519E-01
  0.1246988935E+01  0.1000000000E+01  0.0000000000E+00  0.1847670744E+00  0.5833084823E-18 -0.1020263362E-01  0.7311964648E+14 -0.8002767615E-01 -0.7110816357E-18 -0.1057515610E-01
  0.1200000000E+01  0.1000000000E+01  0.0000000000E+00  0.2422916117E+00  0.2509460845E-18  0.3501573713E-01  0.7311964648E+14 -0.2303494933E-01  0.1414939358E-18  0.3431518216E-01
  0.1600000000E+01  0.1000000000E+01  0.4698893521E-01  0.3738653878E+01 -0.1071513045E-15  0.4625029672E+00  0.7311964651E+14  0.3438648679E+01 -0.1001970124E-15 -0.7429670349E-01
  0.1553011065E+01  0.1000000000E+01  0.4698893521E-01  0.4217970095E+01 -0.2573991490E-16  0.6631458398E-02  0.7311964650E+14  0.3925697513E+01 -0.3429325688E-16 -0.5174046670E+00
  0.1457046303E+01  0.1000000000E+01  0.4698893521E-01  0.3353545844E+01 -0.2789104434E-16  0.3368885732E+00  0.7311964650E+14  0.3023042606E+01 -0.1842945881E-16 -0.1672520116E+00
  0.1342953697E+01  0.1000000000E+01  0.4698893521E-01  0.3443780560E+01  0.3274999817E-16  0.3235190146E+00  0.7311964649E+14  0.3061431782E+01  0.2914923928E-16 -0.1247799697E+00
  0.1246988935E+01  0.1000000000E+01  0.4698893521E-01  0.2852990747E+01  0.1952226658E-16  0.3268271839E+00  0.7311964648E+14  0.2447867974E+01  0.2385306554E-17 -0.8126135782E-01
  0.1200000000E+01  0.1000000000E+01  0.4698893521E-01  0.3246280336E+01 -0.7971592474E-16  0.1315643767E+00  0.7311964648E+14  0.2828622883E+01 -0.6051212739E-16 -0.2712372948E+00
  0.1600000000E+01  0.1000000000E+01  0.1429536967E+00  0.7321374457E+01 -0.2334793219E-15 -0.8467414315E+00  0.7311964651E+14  0.7006182062E+01 -0.2513144255E-15 -0.1449038007E+01
  0.1553011065E+01  0.1000000000E+01  0.1429536967E+00  0.8890731354E+01 -0.1772688888E-15 -0.2916543693E-01  0.7311964651E+14  0.8592961522E+01 -0.1631233791E-15 -0.6450355489E+00
  0.1457046303E+01  0.1000000000E+01  0.1429536967E+00  0.7126155781E+01  0.6373683265E-16 -0.8174032407E-01  0.7311964650E+14  0.6759396338E+01  0.4006182403E-16 -0.6836264848E+00
  0.1342953697E+01  0.1000000000E+01  0.1429536967E+00  0.7325644297E+01  0.1195482109E-15  0.4949521520E+00  0.7311964649E+14  0.6903865865E+01  0.1037586467E-15 -0.7364232154E-01
  0.1246988935E+01  0.1000000000E+01  0.1429536967E+00  0.5930491391E+01 -0.3712664714E-16 -0.1500212120E+00  0.7311964649E+14  0.5527625507E+01 -0.3213097897E-17 -0.7262219493E+00
  0.1200000000E+01  0.1000000000E+01  0.1429536967E+00  0.6767341561E+01 -0.8801725718E-16 -0.5923237239E-01  0.7311964648E+14  0.6365370389E+01 -0.7747418169E-16 -0.6550755005E+00
  0.1600000000E+01  0.1000000000E+01  0.2570463033E+00  0.1262155392E+02  0.8478933599E-16 -0.2315869889E+01  0.7311964652E+14  0.1243355682E+02  0.8417701288E-16 -0.2729295287E+01
  0.1553011065E+01  0.1000000000E+01  0.2570463033E+00  0.1156522322E+02  0.1173850472E-15 -0.1274637420E+01  0.7311964652E+14  0.1132161558E+02  0.1103566448E-15 -0.1723050419E+01
  0.1457046303E+01  0.1000000000E+01  0.2570463033E+00  0.1047373106E+02  0.2057119278E-15 -0.1347225951E+01  0.7311964651E+14  0.1010387036E+02  0.1845732303E-15 -0.1842247123E+01
  0.1342953697E+01  0.1000000000E+01  0.2570463033E+00  0.9023030956E+01  0.1564704793E-15 -0.4390969267E+00  0.7311964650E+14  0.8620251096E+01  0.1337318278E-15 -0.9609698322E+00
  0.1246988935E+01  0.1000000000E+01  0.2570463033E+00  0.7801354822E+01  0.7211747353E-16 -0.1379609354E+01  0.7311964649E+14  0.7456814290E+01  0.4727310919E-16 -0.1939644746E+01
  0.1200000000E+01  0.1000000000E+01  0.2570463033E+00  0.7496761488E+01 -0.2170250291E-16 -0.1229090854E+01  0.7311964649E+14  0.7159803896E+01 -0.2217292446E-16 -0.1815843773E+01
  0.1600000000E+01  0.1000000000E+01  0.3530110648E+00  0.1145166074E+02  0.1759795158E-15 -0.2667995748E+01  0.7311964653E+14  0.1131591167E+02  0.1766208608E-15 -0.3214641467E+01
  0.1553011065E+01  0.1000000000E+01  0.3530110648E+00  0.1168058867E+02  0.1834584632E-15 -0.2617697495E+01  0.7311964653E+14  0.1150356225E+02  0.1819863166E-15 -0.3184883780E+01
  0.1457046303E+01  0.1000000000E+01  0.3530110648E+00  0.1072820670E+02  0.2002770597E-15 -0.2315017797E+01  0.7311964652E+14  0.1039741430E+02  0.1886439773E-15 -0.2925257729E+01
  0.1342953697E+01  0.1000000000E+01  0.3530110648E+00  0.9644976951E+01  0.1338446245E-15 -0.1842049596E+01  0.7311964651E+14  0.9257783968E+01  0.1273801932E-15 -0.2473526607E+01
  0.1246988935E+01  0.1000000000E+01  0.3530110648E+00  0.8318458717E+01  0.1716670454E-17 -0.2360382530E+01  0.7311964650E+14  0.7994645635E+01  0.1776075779E-16 -0.2983943745E+01
  0.1200000000E+01  0.1000000000E+01  0.3530110648E+00  0.8326116062E+01  0.7937305378E-17 -0.2453658449E+01  0.7311964650E+14  0.8004594981E+01  0.7498806139E-17 -0.3070689368E+01
  0.1600000000E+01  0.1000000000E+01  0.4000000000E+00  0.1180862906E+02  0.1754957152E-15 -0.3008570618E+01  0.7311964653E+14  0.1169577449E+02  0.1750039447E-15 -0.3605578319E+01
  0.1553011065E+01  0.1000000000E+01  0.4000000000E+00  0.1115770060E+02  0.1667547906E-15 -0.2326644892E+01  0.7311964653E+14  0.1099092520E+02  0.1667494430E-15 -0.2920961603E+01
  0.1457046303E+01  0.1000000000E+01  0.4000000000E+00  0.1078744029E+02  0.1453482499E-15 -0.2661134497E+01  0.7311964652E+14  0.1046370367E+02  0.1428568983E-15 -0.3229898116E+01
  0.1342953697E+01  0.1000000000E+01  0.4000000000E+00  0.9608174929E+01  0.1690407052E-15 -0.2163277341E+01  0.7311964651E+14  0.9223831428E+01  0.1401938953E-15 -0.2742016622E+01
  0.1246988935E+01  0.1000000000E+01  0.4000000000E+00  0.8677092873E+01  0.1182626712E-16 -0.2936617538E+01  0.7311964650E+14  0.8339005365E+01  0.2260629926E-16 -0.3500975555E+01
  0.1200000000E+01  0.1000000000E+01  0.4000000000E+00  0.8188769941E+01  0.6669076383E-17 -0.2805486828E+01  0.7311964650E+14  0.7859398409E+01  0.6293076950E-17 -0.3352888871E+01
ZONE I=6, J=6, K=1, F=POINT
  0.2000000000E+01  0.1000000000E+01  0.0000000000E+00  0.2437557837E+01  0.1294929732E-18  0.2126114307E+02  0.7311964651E+14  0.2446793958E+01  0.1132359536E-18  0.2217140430E+02
  0.1953011065E+01  0.1000000000E+01  0.0000000000E+00  0.1589601204E+01 -0.4345605334E-16 -0.9444317176E-01  0.7311964654E+14  0.1364801344E+01 -0.3703233237E-16 -0.1261780923E+00
  0.1857046303E+01  0.1000000000E+01  0.0000000000E+00  0.4064237031E-01  0.6739220763E-18  0.1411099667E+00  0.7311964653E+14 -0.2495856947E+00 -0.1646914638E-16  0.1404443441E+00
  0.1742953697E+01  0.1000000000E+01  0.0000000000E+00  0.4315776111E+00  0.1207752436E-17 -0.3476093534E-01  0.7311964652E+14  0.1559127777E+00  0.3357925068E-18 -0.3750716641E-01
  0.1646988935E+01  0.1000000000E+01  0.0000000000E+00  0.1889494226E+00 -0.4537473998E-18  0.5494897100E-01  0.7311964651E+14 -0.1232180987E+00  0.5280038652E-18  0.5598088139E-01
  0.1600000000E+01  0.1000000000E+01  0.0000000000E+00  0.3393730503E+00 -0.8667939409E-18 -0.9640456570E-01  0.7311964651E+14  0.7661202938E-01 -0.9172769727E-18 -0.8828923300E-01
  0.2000000000E+01  0.1000000000E+01  0.4698893521E-01  0.3343438484E-01  0.8120117018E-18  0.4878861734E+02  0.7311964654E+14 -0.3082701146E-01  0.8649371210E-18  0.4872164323E+02
  0.1953011065E+01  0.1000000000E+01  0.4698893521E-01  0.1171810570E+02  0.1408712997E-15  0.2214442559E+01  0.7311964654E+14  0.1162967698E+02  0.1393368912E-15  0.2120943594E+01
  0.1857046303E+01  0.1000000000E+01  0.4698893521E-01  0.1247351493E+02  0.3471563524E-15 -0.1208046431E+01  0.7311964653E+14  0.1235590740E+02  0.3383182612E-15 -0.1427314747E+01
  0.1742953697E+01  0.1000000000E+01  0.4698893521E-01  0.6513593686E+01 -0.5157250085E-16 -0.3772945679E-01  0.7311964652E+14  0.6328594666E+01 -0.5053057357E-16 -0.5005825435E+00
  0.1646988935E+01  0.1000000000E+01  0.4698893521E-01  0.5415373697E+01 -0.1779564621E-15 -0.2932783431E+00  0.7311964651E+14  0.5114927611E+01 -0.1615924642E-15 -0.8411792135E+00
  0.1600000000E+01  0.1000000000E+01  0.4698893521E-01  0.3566421978E+01 -0.1039464293E-15  0.4486453667E+00  0.7311964651E+14  0.3276969704E+01 -0.9681630358E-16 -0.9320416138E-01
  0.2000000000E+01  0.1000000000E+01  0.1429536967E+00 -0.2930913461E+00  0.2158245675E-17  0.5087252846E+02  0.7311964655E+14 -0.2684957460E+00  0.1657174367E-17  0.5048773177E+02
  0.1953011065E+01  0.1000000000E+01  0.1429536967E+00  0.3573477908E+01 -0.4397582790E-15  0.1726314955E+02  0.7311964655E+14  0.3472157086E+01 -0.4476039125E-15  0.1709476416E+02
  0.1857046303E+01  0.1000000000E+01  0.1429536967E+00  0.1353651119E+02 -0.3266647986E-15 -0.2802829163E+01  0.7311964654E+14  0.1361003217E+02 -0.3308741953E-15 -0.3037481916E+01
  0.1742953697E+01  0.1000000000E+01  0.1429536967E+00  0.1089629719E+02  0.4806669888E-16 -0.3127805644E+01  0.7311964653E+14  0.1091365009E+02  0.4847444087E-16 -0.3604537012E+01
  0.1646988935E+01  0.1000000000E+01  0.1429536967E+00  0.1063273463E+02 -0.1723715954E-15 -0.1093111387E+01  0.7311964652E+14  0.1035228390E+02 -0.1704197478E-15 -0.1676006649E+01
  0.1600000000E+01  0.1000000000E+01  0.1429536967E+00  0.6940551646E+01 -0.2490477542E-15 -0.8487744539E+00  0.7311964651E+14  0.6668932011E+01 -0.2673881637E-15 -0.1453959191E+01
  0.2000000000E+01  0.1000000000E+01  0.2570463033E+00  0.2240268424E-01  0.1274240134E-17  0.5019848799E+02  0.7311964656E+14  0.1570022710E-01  0.1135947773E-17  0.4987778373E+02