TITLE = "Generated from ../MESH/Convergence_0000000000.hmesh and Convergence_0000008500.hsol"
VARIABLES = "x","y","z","veloT_x","veloT_y","veloT_z","slr_4","velo_x","velo_y","velo_z"
ZONE I=6, J=6, K=1, F=POINT
  0.4000000000E+00  0.1000000000E+01  0.0000000000E+00 -0.7117027570E-02  0.4647776110E-19  0.7151878113E-02  0.3504872234E+15 -0.6057375000E-01  0.1895453490E-19  0.7745210988E-02
  0.3530110648E+00  0.1000000000E+01  0.0000000000E+00  0.2589496845E-03  0.2371500569E-19 -0.7114281228E-03  0.3504872234E+15 -0.5180272097E-01  0.2680581584E-19  0.2691208010E-03
  0.2570463033E+00  0.1000000000E+01  0.0000000000E+00 -0.8941035924E-03  0.8014023771E-20  0.2073918837E-02  0.3504872234E+15 -0.4037387238E-01  0.9708764295E-20  0.3592964825E-02
  0.1429536967E+00  0.1000000000E+01  0.0000000000E+00 -0.1890285608E-02  0.1262886623E-20 -0.4644306401E-03  0.3504872234E+15 -0.3710097305E-01  0.3015222113E-20 -0.7199709326E-03
  0.4698893521E-01  0.1000000000E+01  0.0000000000E+00  0.2728649844E-02  0.1552897231E-20  0.3283953469E-03  0.3504872234E+15 -0.2460165160E-01 -0.2081384176E-20  0.4748334344E-02
  0.0000000000E+00  0.1000000000E+01  0.0000000000E+00 -0.6205646566E-02 -0.2510475080E-22  0.9851419323E-03  0.3504872234E+15 -0.9929575569E-02  0.3042322416E-22  0.4600790150E-02
  0.4000000000E+00  0.1000000000E+01  0.4698893521E-01  0.3973842828E+00  0.2832378045E-17 -0.2464085329E+00  0.3504872234E+15  0.2225841248E+00  0.3829447768E-17 -0.3139897798E+00
  0.3530110648E+00  0.1000000000E+01  0.4698893521E-01  0.2318355010E+00  0.2381480798E-17 -0.2050566520E+00  0.3504872234E+15  0.7006884362E-01  0.4139360073E-17 -0.2405267240E+00
  0.2570463033E+00  0.1000000000E+01  0.4698893521E-01  0.1640248101E+00  0.1061774662E-17 -0.1817403786E+00  0.3504872234E+15  0.3952439876E-01  0.1223123931E-17 -0.1828913391E+00
  0.1429536967E+00  0.1000000000E+01  0.4698893521E-01  0.5617041456E-01  0.5127976986E-18 -0.1365759880E+00  0.3504872234E+15 -0.5915409479E-01  0.2284054897E-18 -0.8640364827E-01
  0.4698893521E-01  0.1000000000E+01  0.4698893521E-01  0.3687019254E-01  0.1975672042E-18 -0.8089026533E-01  0.3504872234E+15 -0.4390752619E-01  0.8671504772E-19 -0.3837537822E-02
  0.0000000000E+00  0.1000000000E+01  0.4698893521E-01 -0.1635937951E-01  0.2070159785E-21  0.5207395247E-03  0.3504872234E+15 -0.2039069504E-01  0.1758548789E-20  0.2772264192E-01
  0.4000000000E+00  0.1000000000E+01  0.1429536967E+00  0.7799185131E+00  0.1234572170E-16 -0.3954765531E+00  0.3504872234E+15  0.5367642717E+00  0.9018034256E-17 -0.5168636533E+00
  0.3530110648E+00  0.1000000000E+01  0.1429536967E+00  0.4391038490E+00  0.8551586046E-17 -0.4135005597E+00  0.3504872234E+15  0.2336945339E+00  0.9392349051E-17 -0.5176122070E+00
  0.2570463033E+00  0.1000000000E+01  0.1429536967E+00  0.2885409795E+00  0.3128918948E-17 -0.3078644538E+00  0.3504872234E+15  0.1070082867E+00  0.3048689891E-17 -0.3586685907E+00
  0.1429536967E+00  0.1000000000E+01  0.1429536967E+00  0.4078598535E-01  0.1268315205E-17 -0.2669727463E+00  0.3504872234E+15 -0.1343239951E+00  0.1285937946E-17 -0.2326272481E+00
  0.4698893521E-01  0.1000000000E+01  0.1429536967E+00 -0.4143019494E-01  0.7405912429E-18 -0.8295503003E-01  0.3504872234E+15 -0.1363221919E+00  0.3634627518E-18 -0.1234322283E-02
  0.0000000000E+00  0.1000000000E+01  0.1429536967E+00 -0.2255919251E-01 -0.3238387833E-20  0.2801757453E-03  0.3504872234E+15 -0.2099047149E-01  0.4104675848E-20  0.2927065965E-01
  0.4000000000E+00  0.1000000000E+01  0.2570463033E+00  0.1020055118E+01  0.5489607038E-17 -0.6512267188E+00  0.3504872234E+15  0.6862082218E+00  0.5198010647E-17 -0.7845911181E+00
  0.3530110648E+00  0.1000000000E+01  0.2570463033E+00  0.6819134810E+00  0.1516465542E-17 -0.7109622467E+00  0.3504872234E+15  0.4118287189E+00  0.4485062358E-18 -0.7849453016E+00
  0.2570463033E+00  0.1000000000E+01  0.2570463033E+00  0.3805823416E+00  0.3098272613E-17 -0.5413583561E+00  0.3504872234E+15  0.1317090640E+00  0.3094535688E-17 -0.5651610530E+00
  0.1429536967E+00  0.1000000000E+01  0.2570463033E+00  0.3663009260E-01  0.2112258430E-17 -0.4207793790E+00  0.3504872234E+15 -0.2066863128E+00  0.2119931509E-17 -0.3932231514E+00
  0.4698893521E-01  0.1000000000E+01  0.2570463033E+00 -0.1045242594E+00  0.7424849550E-18 -0.9164019499E-01  0.3504872234E+15 -0.2275606787E+00  0.1519627351E-17 -0.3194951722E-01
  0.0000000000E+00  0.1000000000E+01  0.2570463033E+00 -0.1496703487E-01 -0.2900834384E-20  0.7262270349E-02  0.3504872234E+15 -0.1413576778E-01 -0.1120192448E-19  0.2391089881E-01
  0.4000000000E+00  0.1000000000E+01  0.3530110648E+00  0.1261728054E+01  0.4814466217E-17 -0.1181037089E+01  0.3504872234E+15  0.6937442584E+00  0.5239294587E-17 -0.1248355374E+01
  0.3530110648E+00  0.1000000000E+01  0.3530110648E+00  0.7960367339E+00  0.4284836220E-17 -0.1160754024E+01  0.3504872234E+15  0.4346949897E+00  0.4371555754E-17 -0.1164490059E+01
  0.2570463033E+00  0.1000000000E+01  0.3530110648E+00  0.3730888099E+00  0.6025720540E-17 -0.8809542809E+00  0.3504872234E+15  0.1010316072E+00  0.5691797389E-17 -0.8592202664E+00
  0.1429536967E+00  0.1000000000E+01  0.3530110648E+00 -0.4213945105E-01  0.3361995384E-17 -0.6067165082E+00  0.3504872234E+15 -0.3182022910E+00  0.2921336314E-17 -0.5584808895E+00
  0.4698893521E-01  0.1000000000E+01  0.3530110648E+00 -0.1762764681E+00  0.8680823451E-18 -0.1464298694E+00  0.3504872234E+15 -0.3029813683E+00  0.3419595335E-18 -0.8780186647E-01
  0.0000000000E+00  0.1000000000E+01  0.3530110648E+00 -0.1578776885E-01 -0.3543666834E-21  0.1497843738E-01  0.3504872234E+15 -0.1397306971E-01 -0.5708379892E-21  0.2339130832E-01
  0.4000000000E+00  0.1000000000E+01  0.4000000000E+00  0.1237722276E+01  0.6350740999E-17 -0.1593574822E+01  0.3504872234E+15  0.6330663527E+00  0.6191315980E-17 -0.1558094952E+01
  0.3530110648E+00  0.1000000000E+01  0.4000000000E+00  0.8064492155E+00  0.6158545329E-17 -0.1413714598E+01  0.3504872234E+15  0.4368871779E+00  0.6542300652E-17 -0.1424223431E+01
  0.2570463033E+00  0.1000000000E+01  0.4000000000E+00  0.3453208732E+00  0.9691356845E-18 -0.1009637163E+01  0.3504872234E+15  0.6549469142E-01  0.5233230814E-18 -0.1029586392E+01
  0.1429536967E+00  0.1000000000E+01  0.4000000000E+00 -0.8400653063E-01  0.9675816964E-18 -0.6743552079E+00  0.3504872234E+15 -0.3719192614E+00  0.1353876137E-17 -0.6587485822E+00
  0.4698893521E-01  0.1000000000E+01  0.4000000000E+00 -0.2228875627E+00  0.5099969780E-18 -0.1559164628E+00  0.3504872234E+15 -0.3482725492E+00  0.4130989546E-18 -0.1259882058E+00
  0.0000000000E+00  0.1000000000E+01  0.4000000000E+00 -0.8205600987E-02  0.8717272943E-20  0.1790180148E-01  0.3504872234E+15 -0.6268524265E-02  0.1414722889E-19  0.1539206502E-01
ZONE I=6, J=6, K=1, F=POINT
  0.8000000000E+00  0.1000000000E+01  0.0000000000E+00  0.4267681610E-01 -0.1767012883E-19 -0.1234268122E-01  0.3504872235E+15 -0.7225811725E-01 -0.7029486802E-19 -0.1093938947E-01
  0.7530110648E+00  0.1000000000E+01  0.0000000000E+00  0.2211576708E-01  0.6646378713E-18  0.5153465752E-02  0.3504872235E+15 -0.8631886155E-01 -0.1840572527E-17  0.7033552793E-02
  0.6570463033E+00  0.1000000000E+01  0.0000000000E+00  0.1243788219E-01  0.1623777094E-18 -0.8746011065E-03  0.3504872235E+15 -0.8129990898E-01 -0.1050677289E-17  0.2061027043E-02
  0.5429536967E+00  0.1000000000E+01  0.0000000000E+00  0.1030692627E-01  0.2591890780E-18  0.5921571449E-02  0.3504872235E+15 -0.6555543740E-01 -0.1716858750E-17  0.9420923111E-02
  0.4469889352E+00  0.1000000000E+01  0.0000000000E+00  0.5891954502E-02  0.2106591783E-18 -0.2418553934E-03  0.3504872234E+15 -0.5560595397E-01 -0.1677725833E-17  0.2318157679E-02
  0.4000000000E+00  0.1000000000E+01  0.0000000000E+00  0.2001215187E-01  0.5010036989E-19  0.6831190327E-02  0.3504872234E+15 -0.3432993341E-01  0.2365534170E-19  0.7437173270E-02
  0.8000000000E+00  0.1000000000E+01  0.4698893521E-01  0.7061681400E+00 -0.2569270981E-16 -0.1813007189E+00  0.3504872235E+15  0.4195008437E+00 -0.2238925634E-16 -0.3532688155E+00
  0.7530110648E+00  0.1000000000E+01  0.4698893521E-01  0.8572293576E+00 -0.3433306287E-16 -0.2459142947E+00  0.3504872235E+15  0.5880047070E+00 -0.1874814932E-16 -0.4189813752E+00
  0.6570463033E+00  0.1000000000E+01  0.4698893521E-01  0.5658284661E+00 -0.1792303167E-17 -0.1956327561E+00  0.3504872235E+15  0.3303816421E+00 -0.4948494209E-17 -0.3910471341E+00
  0.5429536967E+00  0.1000000000E+01  0.4698893521E-01  0.5380851352E+00  0.7471644277E-17 -0.1758046993E+00  0.3504872235E+15  0.3257232567E+00  0.3737757729E-17 -0.3670528648E+00
  0.4469889352E+00  0.1000000000E+01  0.4698893521E-01  0.3645934158E+00  0.3819356675E-17 -0.1911000123E+00  0.3504872234E+15  0.1702663593E+00  0.5106367244E-17 -0.3074901003E+00
  0.4000000000E+00  0.1000000000E+01  0.4698893521E-01  0.4397229803E+00  0.2571800447E-17 -0.2472104721E+00  0.3504872234E+15  0.2646843626E+00  0.3587069135E-17 -0.3147488954E+00
  0.8000000000E+00  0.1000000000E+01  0.1429536967E+00  0.1742205285E+01 -0.4269185881E-16 -0.5642884213E+00  0.3504872235E+15  0.1445432666E+01 -0.5099296531E-16 -0.8393925436E+00
  0.7530110648E+00  0.1000000000E+01  0.1429536967E+00  0.1937981351E+01 -0.3158207399E-16 -0.4400094258E+00  0.3504872235E+15  0.1660593367E+01 -0.2791382755E-16 -0.7059632402E+00
  0.6570463033E+00  0.1000000000E+01  0.1429536967E+00  0.1352104585E+01 -0.9003923313E-17 -0.4635583372E+00  0.3504872235E+15  0.1098622263E+01  0.1164287154E-17 -0.6855084091E+00
  0.5429536967E+00  0.1000000000E+01  0.1429536967E+00  0.1172986438E+01  0.1605220618E-16 -0.3373655412E+00  0.3504872234E+15  0.9163587839E+00  0.8591784575E-17 -0.4999338352E+00
  0.4469889352E+00  0.1000000000E+01  0.1429536967E+00  0.7762178592E+00  0.1107908408E-16 -0.4237966860E+00  0.3504872234E+15  0.5167545902E+00  0.1356159725E-16 -0.5583336033E+00
  0.4000000000E+00  0.1000000000E+01  0.1429536967E+00  0.8308893171E+00  0.1311535240E-16 -0.3949444972E+00  0.3504872234E+15  0.5874892830E+00  0.9730029364E-17 -0.5163380196E+00
  0.8000000000E+00  0.1000000000E+01  0.2570463033E+00  0.3099053052E+01 -0.8863577972E-17 -0.1216731953E+01  0.3504872235E+15  0.2790090847E+01 -0.9450657201E-17 -0.1490560326E+01
  0.7530110648E+00  0.1000000000E+01  0.2570463033E+00  0.2823870167E+01 -0.8842038510E-17 -0.9710655803E+00  0.3504872235E+15  0.2520407897E+01 -0.1111565343E-16 -0.1238367551E+01
  0.6570463033E+00  0.1000000000E+01  0.2570463033E+00  0.2100791654E+01 -0.5581228144E-17 -0.8361280805E+00  0.3504872234E+15  0.1834179388E+01  0.1850436459E-17 -0.1153548604E+01
  0.5429536967E+00  0.1000000000E+01  0.2570463033E+00  0.1624159682E+01  0.8154020074E-17 -0.4767723742E+00  0.3504872234E+15  0.1325363017E+01  0.3231797442E-17 -0.8504523768E+00
  0.4469889352E+00  0.1000000000E+01  0.2570463033E+00  0.1212137872E+01  0.4271984886E-17 -0.6445753995E+00  0.3504872234E+15  0.8589072646E+00  0.1599730812E-17 -0.8783282351E+00
  0.4000000000E+00  0.1000000000E+01  0.2570463033E+00  0.1051172608E+01  0.5548741900E-17 -0.6505081519E+00  0.3504872234E+15  0.7168955828E+00  0.5212874084E-17 -0.7839649038E+00
  0.8000000000E+00  0.1000000000E+01  0.3530110648E+00  0.3606551526E+01  0.1437155677E-17 -0.2108614309E+01  0.3504872235E+15  0.3280923307E+01  0.1982730443E-17 -0.2332518672E+01
  0.7530110648E+00  0.1000000000E+01  0.3530110648E+00  0.3275287936E+01  0.2073643185E-16 -0.1916319260E+01  0.3504872234E+15  0.2981691354E+01  0.4170651768E-17 -0.2122061969E+01
  0.6570463033E+00  0.1000000000E+01  0.3530110648E+00  0.2336976685E+01  0.3032302120E-17 -0.1670467296E+01  0.3504872234E+15  0.2266006888E+01  0.1034636551E-16 -0.2014705838E+01
  0.5429536967E+00  0.1000000000E+01  0.3530110648E+00  0.1865912921E+01 -0.1013591845E-16 -0.1205545439E+01  0.3504872234E+15  0.1521241046E+01  0.1587212380E-16 -0.1770966689E+01
  0.4469889352E+00  0.1000000000E+01  0.3530110648E+00  0.1515463311E+01  0.8126758514E-17 -0.1220799104E+01  0.3504872234E+15  0.7906624259E+00  0.8470611869E-17 -0.1477959420E+01
  0.4000000000E+00  0.1000000000E+01  0.3530110648E+00  0.1293614767E+01  0.4708395534E-17 -0.1180683788E+01  0.3504872234E+15  0.7279853117E+00  0.5190410302E-17 -0.1248399507E+01
  0.8000000000E+00  0.1000000000E+01  0.4000000000E+00  0.3862481862E+01 -0.7732858354E-17 -0.2633601855E+01  0.3504872234E+15  0.3534484163E+01 -0.7760560447E-17 -0.2759089623E+01
  0.7530110648E+00  0.1000000000E+01  0.4000000000E+00  0.3385493339E+01  0.9417080325E-20 -0.2455390524E+01  0.3504872234E+15  0.3056746593E+01 -0.1375018877E-17 -0.2525984788E+01
  0.6570463033E+00  0.1000000000E+01  0.4000000000E+00  0.2429554936E+01 -0.3725102791E-17 -0.2450699540E+01  0.3504872234E+15  0.2476707478E+01 -0.4941263052E-17 -0.2519960185E+01
  0.5429536967E+00  0.1000000000E+01  0.4000000000E+00  0.1878034086E+01  0.2207413392E-17 -0.2145284681E+01  0.3504872234E+15  0.1519238520E+01 -0.7629946899E-17 -0.2411129790E+01
  0.4469889352E+00  0.1000000000E+01  0.4000000000E+00  0.1579166338E+01  0.1884395192E-16 -0.1858225816E+01  0.3504872234E+15  0.6453858963E+00 -0.1910350143E-17 -0.1898576857E+01
  0.4000000000E+00  0.1000000000E+01  0.4000000000E+00  0.1246866269E+01  0.6279394382E-17 -0.1592286320E+01  0.3504872234E+15  0.6458344464E+00  0.6211003403E-17 -0.1557851758E+01
ZONE I=6, J=6, K=1, F=POINT
  0.1200000000E+01  0.1000000000E+01  0.0000000000E+00  0.3204859411E-01  0.1237103594E-18  0.3587792592E-01  0.3504872235E+15 -0.1178805875E+00  0.8071259595E-19  0.3567529594E-01
  0.1153011065E+01  0.1000000000E+01  0.0000000000E+00  0.5539255388E-01  0.2910743090E-17 -0.1069807269E-01  0.3504872235E+15 -0.9402525862E-01 -0.4024551227E-17 -0.1026420263E-01
  0.1057046303E+01  0.1000000000E+01  0.0000000000E+00  0.5373952995E-01  0.1341689675E-17  0.4619605273E-02  0.3504872235E+15 -0.9006810621E-01 -0.2373952969E-17  0.5618312425E-02
  0.9429536967E+00  0.1000000000E+01  0.0000000000E+00  0.3778378707E-01  0.1247815402E-18 -0.9493802634E-02  0.3504872235E+15 -0.9532902112E-01  0.3980859711E-19 -0.8193552617E-02
  0.8469889352E+00  0.1000000000E+01  0.0000000000E+00  0.3346861628E-01  0.4731209751E-20  0.4390063871E-02  0.3504872235E+15 -0.8827039422E-01 -0.6710142454E-21  0.6009719416E-02
  0.8000000000E+00  0.1000000000E+01  0.0000000000E+00 -0.2505859444E-02 -0.2114759061E-19 -0.1180007032E-01  0.3504872235E+15 -0.1174353945E+00 -0.8339254677E-19 -0.1039786258E-01
  0.1200000000E+01  0.1000000000E+01  0.4698893521E-01  0.2779804710E+01 -0.5917830377E-16 -0.8097625612E-01  0.3504872235E+15  0.2463864963E+01 -0.4485403529E-16 -0.3193163353E+00
  0.1153011065E+01  0.1000000000E+01  0.4698893521E-01  0.2086723330E+01 -0.3790240480E-16  0.2562221537E-01  0.3504872235E+15  0.1765682737E+01 -0.2747526521E-16 -0.2025171031E+00
  0.1057046303E+01  0.1000000000E+01  0.4698893521E-01  0.1911952165E+01 -0.7428505204E-17 -0.9786086233E-01  0.3504872235E+15  0.1591277288E+01 -0.1161016562E-16 -0.3098976991E+00
  0.9429536967E+00  0.1000000000E+01  0.4698893521E-01  0.1238801471E+01 -0.2246276251E-16 -0.1727380777E+00  0.3504872235E+15  0.9269745568E+00 -0.1397591881E-16 -0.3690773872E+00
  0.8469889352E+00  0.1000000000E+01  0.4698893521E-01  0.1077693534E+01 -0.3895452506E-16 -0.2415049352E+00  0.3504872235E+15  0.7800092808E+00 -0.2555466517E-16 -0.4208378173E+00
  0.8000000000E+00  0.1000000000E+01  0.4698893521E-01  0.6446538735E+00 -0.2506047499E-16 -0.1792001777E+00  0.3504872235E+15  0.3587240373E+00 -0.2171141276E-16 -0.3512315006E+00
  0.1200000000E+01  0.1000000000E+01  0.1429536967E+00  0.6156492229E+01 -0.7319314788E-16 -0.4164273558E+00  0.3504872235E+15  0.5824388103E+01 -0.6428227817E-16 -0.7634571712E+00
  0.1153011065E+01  0.1000000000E+01  0.1429536967E+00  0.4724085405E+01 -0.4337487047E-16 -0.6802053863E+00  0.3504872235E+15  0.4378751214E+01 -0.6080207188E-16 -0.1015835040E+01
  0.1057046303E+01  0.1000000000E+01  0.1429536967E+00  0.4262268099E+01 -0.3790908989E-16 -0.5895622394E+00  0.3504872235E+15  0.3929770827E+01 -0.3732455419E-16 -0.9040070196E+00
  0.9429536967E+00  0.1000000000E+01  0.1429536967E+00  0.2876498671E+01 -0.3211331363E-16 -0.8181100692E+00  0.3504872235E+15  0.2549633958E+01 -0.3216337139E-16 -0.1122313557E+01
  0.8469889352E+00  0.1000000000E+01  0.1429536967E+00  0.2478893512E+01 -0.5493139435E-16 -0.5512633759E+00  0.3504872235E+15  0.2155818872E+01 -0.4618272922E-16 -0.8358684508E+00
  0.8000000000E+00  0.1000000000E+01  0.1429536967E+00  0.1657659034E+01 -0.4469394258E-16 -0.5660114737E+00  0.3504872235E+15  0.1362122788E+01 -0.5317246520E-16 -0.8410619975E+00
  0.1200000000E+01  0.1000000000E+01  0.2570463033E+00  0.6955877689E+01 -0.1693454391E-16 -0.1567729875E+01  0.3504872235E+15  0.6605438311E+01 -0.1706363145E-16 -0.1899930928E+01
  0.1153011065E+01  0.1000000000E+01  0.2570463033E+00  0.6464008039E+01 -0.1041531735E-15 -0.1889704401E+01  0.3504872235E+15  0.6086815983E+01 -0.6827560505E-16 -0.2213588019E+01
  0.1057046303E+01  0.1000000000E+01  0.2570463033E+00  0.5537007513E+01 -0.3218587061E-16 -0.1665959698E+01  0.3504872235E+15  0.5172798975E+01 -0.3283409224E-16 -0.1948321018E+01
  0.9429536967E+00  0.1000000000E+01  0.2570463033E+00  0.4353225951E+01 -0.5516499881E-16 -0.1869586146E+01  0.3504872235E+15  0.4020061788E+01 -0.3716042267E-16 -0.2113601641E+01
  0.8469889352E+00  0.1000000000E+01  0.2570463033E+00  0.3598198196E+01  0.8396642796E-18 -0.1280516257E+01  0.3504872235E+15  0.3276395962E+01 -0.1320912769E-16 -0.1546973780E+01
  0.8000000000E+00  0.1000000000E+01  0.2570463033E+00  0.3061126688E+01 -0.9416465532E-17 -0.1219632970E+01  0.3504872235E+15  0.2752509255E+01 -0.9839834267E-17 -0.1492879355E+01
  0.1200000000E+01  0.1000000000E+01  0.3530110648E+00  0.7675246789E+01  0.1276970416E-16 -0.2767544473E+01  0.3504872235E+15  0.7300430870E+01  0.1277865619E-16 -0.3115269874E+01
  0.1153011065E+01  0.1000000000E+01  0.3530110648E+00  0.7009243856E+01 -0.1129873263E-16 -0.2813028364E+01  0.3504872235E+15  0.6602918543E+01 -0.6092222706E-17 -0.3144305316E+01
  0.1057046303E+01  0.1000000000E+01  0.3530110648E+00  0.6202653842E+01 -0.1818471360E-16 -0.2686713992E+01  0.3504872235E+15  0.5773089777E+01 -0.1364656015E-16 -0.2966773750E+01
  0.9429536967E+00  0.1000000000E+01  0.3530110648E+00  0.4955339105E+01 -0.3696088537E-16 -0.2728086054E+01  0.3504872235E+15  0.4611188850E+01 -0.2365502275E-16 -0.2940329551E+01
  0.8469889352E+00  0.1000000000E+01  0.3530110648E+00  0.4176799994E+01  0.1256816053E-16 -0.2247443550E+01  0.3504872235E+15  0.3895829940E+01  0.6402298352E-17 -0.2465659492E+01
  0.8000000000E+00  0.1000000000E+01  0.3530110648E+00  0.3558956843E+01  0.1270919716E-17 -0.2109018531E+01  0.3504872235E+15  0.3234796190E+01  0.1860217098E-17 -0.2333001054E+01
  0.1200000000E+01  0.1000000000E+01  0.4000000000E+00  0.7599411086E+01  0.1203386812E-16 -0.3109088471E+01  0.3504872235E+15  0.7198156660E+01  0.1205970489E-16 -0.3412333368E+01
  0.1153011065E+01  0.1000000000E+01  0.4000000000E+00  0.7291316189E+01  0.1892891065E-16 -0.3355193643E+01  0.3504872235E+15  0.6866904844E+01  0.1559854515E-16 -0.3636163558E+01
  0.1057046303E+01  0.1000000000E+01  0.4000000000E+00  0.6349094231E+01 -0.4673602939E-17 -0.3101267698E+01  0.3504872235E+15  0.5895493164E+01 -0.7653129476E-17 -0.3356764044E+01
  0.9429536967E+00  0.1000000000E+01  0.4000000000E+00  0.5215588173E+01 -0.3707119280E-16 -0.3136024171E+01  0.3504872235E+15  0.4850501320E+01 -0.2967793183E-16 -0.3347946415E+01
  0.8469889352E+00  0.1000000000E+01  0.4000000000E+00  0.4300941832E+01 -0.8504353186E-17 -0.2684185808E+01  0.3504872235E+15  0.4015191836E+01 -0.1122016604E-16 -0.2827423771E+01
  0.8000000000E+00  0.1000000000E+01  0.4000000000E+00  0.3859938884E+01 -0.7822653319E-17 -0.2636948259E+01  0.3504872234E+15  0.3530512821E+01 -0.7803181990E-17 -0.2762366591E+01
ZONE I=6, J=6, K=1, F=POINT
  0.1600000000E+01  0.1000000000E+01  0.0000000000E+00  0.2380528956E+00 -0.8233023322E-18 -0.7812984380E-01  0.3504872235E+15  0.7514102867E-01 -0.9603087368E-18 -0.7277163603E-01
  0.1553011065E+01  0.1000000000E+01  0.0000000000E+00  0.1141254427E+00 -0.6478951962E-17  0.4409253946E-01  0.3504872235E+15 -0.4647524326E-01  0.1242896471E-17  0.4463696935E-01
  0.1457046303E+01  0.1000000000E+01  0.0000000000E+00  0.8426209219E-01 -0.2147987946E-17 -0.4753744554E-02  0.3504872235E+15 -0.7232792330E-01  0.1489353695E-17 -0.4482858237E-02
  0.1342953697E+01  0.1000000000E+01  0.0000000000E+00  0.8369189558E-01  0.4791924618E-17  0.2842100330E-01  0.3504872235E+15 -0.6912781285E-01 -0.3684933412E-17  0.2867944957E-01
  0.1246988935E+01  0.1000000000E+01  0.0000000000E+00  0.6102758525E-01  0.1659644190E-18 -0.9268614622E-02  0.3504872235E+15 -0.8926264636E-01 -0.4721635797E-18 -0.9127712153E-02
  0.1200000000E+01  0.1000000000E+01  0.0000000000E+00  0.1217054029E+00  0.1546897591E-18  0.3587197385E-01  0.3504872235E+15 -0.2816472152E-01  0.7639245478E-19  0.3566778782E-01
  0.1600000000E+01  0.1000000000E+01  0.4698893521E-01  0.3388993603E+01 -0.9851850510E-16  0.2694798120E+00  0.3504872235E+15  0.3117891465E+01 -0.9228560621E-16  0.1593611928E-01
  0.1553011065E+01  0.1000000000E+01  0.4698893521E-01  0.3893674982E+01 -0.3472565664E-16 -0.2008768801E+00  0.3504872235E+15  0.3641793590E+01 -0.4219571532E-16 -0.4634132218E+00
  0.1457046303E+01  0.1000000000E+01  0.4698893521E-01  0.3010942036E+01 -0.1735451367E-16  0.7516844581E-01  0.3504872235E+15  0.2736468150E+01 -0.9379613772E-17 -0.2150584601E+00
  0.1342953697E+01  0.1000000000E+01  0.4698893521E-01  0.3079130200E+01  0.3008803361E-16  0.8421185366E-01  0.3504872235E+15  0.2778861983E+01  0.2730351694E-16 -0.1779967030E+00
  0.1246988935E+01  0.1000000000E+01  0.4698893521E-01  0.2495213426E+01  0.5851785951E-17  0.1033422922E+00  0.3504872235E+15  0.2192007945E+01 -0.6895458025E-17 -0.1403049003E+00
  0.1200000000E+01  0.1000000000E+01  0.4698893521E-01  0.2879424624E+01 -0.6358495498E-16 -0.8672794527E-01  0.3504872235E+15  0.2561056241E+01 -0.4912101811E-16 -0.3246696045E+00
  0.1600000000E+01  0.1000000000E+01  0.1429536967E+00  0.6932602999E+01 -0.2523034302E-15 -0.1276440872E+01  0.3504872235E+15  0.6639244274E+01 -0.2681554682E-15 -0.1692323725E+01
  0.1553011065E+01  0.1000000000E+01  0.1429536967E+00  0.8585428592E+01 -0.1625672375E-15 -0.4543155561E+00  0.3504872235E+15  0.8354590940E+01 -0.1522080335E-15 -0.8707653862E+00
  0.1457046303E+01  0.1000000000E+01  0.1429536967E+00  0.6756383025E+01  0.4467204119E-16 -0.4858118063E+00  0.3504872235E+15  0.6470683332E+01  0.2629543566E-16 -0.8860117578E+00
  0.1342953697E+01  0.1000000000E+01  0.1429536967E+00  0.6897226832E+01  0.1078186626E-15  0.1251614207E+00  0.3504872235E+15  0.6565862937E+01  0.9548487338E-16 -0.2430167563E+00
  0.1246988935E+01  0.1000000000E+01  0.1429536967E+00  0.5530908380E+01 -0.7619273928E-17 -0.5067373226E+00  0.3504872235E+15  0.5220186322E+01  0.1795301188E-16 -0.8591621056E+00
  0.1200000000E+01  0.1000000000E+01  0.1429536967E+00  0.6326991441E+01 -0.7706157702E-16 -0.4100962791E+00  0.3504872235E+15  0.5981275872E+01 -0.6815348380E-16 -0.7584036680E+00
  0.1600000000E+01  0.1000000000E+01  0.2570463033E+00  0.1220719142E+02  0.8836693051E-16 -0.2766670226E+01  0.3504872235E+15  0.1196763045E+02  0.8756879715E-16 -0.3134879898E+01
  0.1553011065E+01  0.1000000000E+01  0.2570463033E+00  0.1117171645E+02  0.1155209221E-15 -0.1713930108E+01  0.3504872235E+15  0.1092978660E+02  0.1096310790E-15 -0.2083288098E+01
  0.1457046303E+01  0.1000000000E+01  0.2570463033E+00  0.1002808790E+02  0.1885156965E-15 -0.1737350300E+01  0.3504872235E+15  0.9713853112E+01  0.1705288357E-15 -0.2098004033E+01
  0.1342953697E+01  0.1000000000E+01  0.2570463033E+00  0.8556660035E+01  0.1390862931E-15 -0.8070284355E+00  0.3504872235E+15  0.8213037669E+01  0.1196684199E-15 -0.1156885236E+01
  0.1246988935E+01  0.1000000000E+01  0.2570463033E+00  0.7347606043E+01  0.5388811431E-16 -0.1725079867E+01  0.3504872235E+15  0.7024478241E+01  0.3318754782E-16 -0.2063625994E+01
  0.1200000000E+01  0.1000000000E+01  0.2570463033E+00  0.6997361340E+01 -0.1764878857E-16 -0.1557243495E+01  0.3504872235E+15  0.6646466184E+01 -0.1765204079E-16 -0.1892736443E+01
  0.1600000000E+01  0.1000000000E+01  0.3530110648E+00  0.1099579887E+02  0.1835113959E-15 -0.3107562566E+01  0.3504872235E+15  0.1076454340E+02  0.1842439367E-15 -0.3501300598E+01
  0.1553011065E+01  0.1000000000E+01  0.3530110648E+00  0.1124090904E+02  0.1871929832E-15 -0.3050556364E+01  0.3504872235E+15  0.1101788535E+02  0.1854962908E-15 -0.3454068800E+01
  0.1457046303E+01  0.1000000000E+01  0.3530110648E+00  0.1025130871E+02  0.1887601215E-15 -0.2756179051E+01  0.3504872235E+15  0.9939359504E+01  0.1756649365E-15 -0.3177419441E+01
  0.1342953697E+01  0.1000000000E+01  0.3530110648E+00  0.9138903341E+01  0.1314066533E-15 -0.2256016966E+01  0.3504872235E+15  0.8777679649E+01  0.1237296624E-15 -0.2659348595E+01
  0.1246988935E+01  0.1000000000E+01  0.3530110648E+00  0.7793228776E+01  0.2264272281E-16 -0.2712397881E+01  0.3504872235E+15  0.7447703069E+01  0.3684751895E-16 -0.3079981302E+01
  0.1200000000E+01  0.1000000000E+01  0.3530110648E+00  0.7755382368E+01  0.1301269832E-16 -0.2767501691E+01  0.3504872235E+15  0.7375677775E+01  0.1286247350E-16 -0.3115134659E+01
  0.1600000000E+01  0.1000000000E+01  0.4000000000E+00  0.1131819695E+02  0.1825618308E-15 -0.3531320249E+01  0.3504872235E+15  0.1109694508E+02  0.1823683369E-15 -0.4020312592E+01
  0.1553011065E+01  0.1000000000E+01  0.4000000000E+00  0.1070008299E+02  0.1808780686E-15 -0.2827359761E+01  0.3504872235E+15  0.1047910222E+02  0.1840125081E-15 -0.3303314875E+01
  0.1457046303E+01  0.1000000000E+01  0.4000000000E+00  0.1030110129E+02  0.1525739650E-15 -0.3133083958E+01  0.3504872235E+15  0.9982124729E+01  0.1516792573E-15 -0.3563222619E+01
  0.1342953697E+01  0.1000000000E+01  0.4000000000E+00  0.9073282716E+01  0.1500674135E-15 -0.2587358623E+01  0.3504872235E+15  0.8696759756E+01  0.1245754031E-15 -0.2979657499E+01
  0.1246988935E+01  0.1000000000E+01  0.4000000000E+00  0.8106732813E+01  0.2639680295E-16 -0.3278167783E+01  0.3504872235E+15  0.7734189877E+01  0.3421702506E-16 -0.3614200851E+01
  0.1200000000E+01  0.1000000000E+01  0.4000000000E+00  0.7572941482E+01  0.1256163186E-16 -0.3096100096E+01  0.3504872235E+15  0.7172430173E+01  0.1241583040E-16 -0.3402648876E+01
ZONE I=6, J=6, K=1, F=POINT
  0.2000000000E+01  0.1000000000E+01  0.0000000000E+00  0.2419781270E+01  0.9748558203E-19  0.2124781955E+02  0.3504872235E+15  0.2432932320E+01  0.9050660258E-19  0.2215783660E+02
  0.1953011065E+01  0.1000000000E+01  0.0000000000E+00  0.1428413202E+01 -0.3997604726E-16 -0.1147855227E+00  0.3504872235E+15  0.1279876680E+01 -0.3538767099E-16 -0.1440704127E+00
  0.1857046303E+01  0.1000000000E+01  0.0000000000E+00 -0.1511337761E+00 -0.1013121648E-16  0.1456438631E+00  0.3504872235E+15 -0.3396426519E+00 -0.2133710505E-16  0.1464045193E+00
  0.1742953697E+01  0.1000000000E+01  0.0000000000E+00  0.2628711332E+00  0.6697456177E-18 -0.3609039738E-01  0.3504872235E+15  0.9016627376E-01  0.4005978083E-19 -0.3773087716E-01
  0.1646988935E+01  0.1000000000E+01  0.0000000000E+00  0.6610596645E-02  0.2283357068E-19  0.5750689768E-01  0.3504872235E+15 -0.1854251044E+00  0.5704196093E-18  0.5840102732E-01
  0.1600000000E+01  0.1000000000E+01  0.0000000000E+00  0.1922558261E+00 -0.9296146799E-18 -0.9022928062E-01  0.3504872235E+15  0.3257700266E-01 -0.1045176124E-17 -0.8338968179E-01
  0.2000000000E+01  0.1000000000E+01  0.4698893521E-01  0.1202024885E-01  0.7962481651E-18  0.4862292865E+02  0.3504872235E+15 -0.4861102018E-01  0.7648745516E-18  0.4863811415E+02
  0.1953011065E+01  0.1000000000E+01  0.4698893521E-01  0.1140431455E+02  0.1383926264E-15  0.1892266181E+01  0.3504872235E+15  0.1120934862E+02  0.1356804748E-15  0.1719989267E+01
  0.1857046303E+01  0.1000000000E+01  0.4698893521E-01  0.1210128035E+02  0.3205807041E-15 -0.1536713853E+01  0.3504872235E+15  0.1187696636E+02  0.3045189865E-15 -0.1752652542E+01
  0.1742953697E+01  0.1000000000E+01  0.4698893521E-01  0.6145766153E+01 -0.4861756977E-16 -0.3768080584E+00  0.3504872235E+15  0.5902558367E+01 -0.4739242563E-16 -0.6781250724E+00
  0.1646988935E+01  0.1000000000E+01  0.4698893521E-01  0.4969929963E+01 -0.1530426358E-15 -0.5326722543E+00  0.3504872235E+15  0.4648236570E+01 -0.1359345244E-15 -0.8100387042E+00
  0.1600000000E+01  0.1000000000E+01  0.4698893521E-01  0.3219803079E+01 -0.9546077288E-16  0.2557170112E+00  0.3504872235E+15  0.2959451461E+01 -0.8911128474E-16 -0.3160438654E-02
  0.2000000000E+01  0.1000000000E+01  0.1429536967E+00 -0.2889136685E+00  0.2312360183E-17  0.5066744287E+02  0.3504872235E+15 -0.2624937373E+00  0.2238990541E-17  0.5039913067E+02
  0.1953011065E+01  0.1000000000E+01  0.1429536967E+00  0.3249121461E+01 -0.4682645282E-15  0.1685527048E+02  0.3504872235E+15  0.3039334521E+01 -0.4859321951E-15  0.1662112192E+02
  0.1857046303E+01  0.1000000000E+01  0.1429536967E+00  0.1319877746E+02 -0.3046973420E-15 -0.3203367698E+01  0.3504872235E+15  0.1304765346E+02 -0.2956845522E-15 -0.3482004050E+01
  0.1742953697E+01  0.1000000000E+01  0.1429536967E+00  0.1050812152E+02  0.1265722163E-16 -0.3574426834E+01  0.3504872235E+15  0.1032071553E+02 -0.6607660066E-17 -0.3957108975E+01
  0.1646988935E+01  0.1000000000E+01  0.1429536967E+00  0.1008366270E+02 -0.1696731694E-15 -0.1534532310E+01  0.3504872235E+15  0.9723881854E+01 -0.1691819467E-15 -0.1947824462E+01
  0.1600000000E+01  0.1000000000E+01  0.1429536967E+00  0.6554344929E+01 -0.2682543946E-15 -0.1277623134E+01  0.3504872235E+15  0.6304057625E+01 -0.2846855161E-15 -0.1697169481E+01
  0.2000000000E+01  0.1000000000E+01  0.2570463033E+00  0.1993123945E-01  0.1222963630E-17  0.5001127366E+02  0.3504872235E+15  0.1592109933E-01  0.1100014052E-17  0.4981714297E+02