TITLE = "Generated from ../MESH/Convergence_0000000000.hmesh and Convergence_0000001100.hsol"
VARIABLES = "x","y","z","veloT_x","veloT_y","veloT_z","slr_4","velo_x","velo_y","velo_z"
ZONE I=6, J=6, K=1, F=POINT
  0.4000000000E+00  0.1000000000E+01  0.0000000000E+00 -0.1302896018E-01  0.2980131525E-19  0.6754992397E-02  0.6150126846E+15 -0.1229937023E-01  0.2993927470E-19  0.6793086925E-02
  0.3530110648E+00  0.1000000000E+01  0.0000000000E+00 -0.2565751596E-02  0.8478689543E-20 -0.5918303480E-03  0.6150126846E+15 -0.1437875903E-02  0.8623459306E-20 -0.6366829266E-03
  0.2570463033E+00  0.1000000000E+01  0.0000000000E+00 -0.8659078556E-03  0.1058138785E-20  0.2127045258E-02  0.6150126846E+15  0.2174703034E-03  0.1327051525E-20  0.2181572635E-02
  0.1429536967E+00  0.1000000000E+01  0.0000000000E+00 -0.1644983591E-02  0.8149458827E-22 -0.1111552087E-02  0.6150126846E+15 -0.3348649727E-03  0.2117889031E-21 -0.1047139577E-02
  0.4698893521E-01  0.1000000000E+01  0.0000000000E+00  0.1146383153E-02 -0.2190719666E-20  0.2040473085E-02  0.6150126846E+15  0.2402495769E-02 -0.2124622457E-20  0.1933184353E-02
  0.0000000000E+00  0.1000000000E+01  0.0000000000E+00 -0.7729967527E-02  0.9757242303E-23  0.2280577414E-02  0.6150126846E+15 -0.7610856971E-02  0.8979869322E-23  0.2141134151E-02
  0.4000000000E+00  0.1000000000E+01  0.4698893521E-01  0.2360462592E+00  0.2404365564E-17 -0.2211144626E-01  0.6150126846E+15  0.2365372363E+00  0.2402610311E-17 -0.4139669163E-01
  0.3530110648E+00  0.1000000000E+01  0.4698893521E-01  0.9360874737E-01  0.2005173153E-17  0.1534122880E-01  0.6150126846E+15  0.9361352493E-01  0.2029692091E-17 -0.4209827192E-02
  0.2570463033E+00  0.1000000000E+01  0.4698893521E-01  0.7452472279E-01  0.5267910063E-18  0.8997414216E-03  0.6150126846E+15  0.7378910542E-01  0.5051728059E-18 -0.1478958236E-01
  0.1429536967E+00  0.1000000000E+01  0.4698893521E-01 -0.4794997397E-02  0.7234353231E-20  0.1304490452E-03  0.6150126846E+15 -0.4615520945E-02  0.2810946531E-20 -0.7788302793E-02
  0.4698893521E-01  0.1000000000E+01  0.4698893521E-01 -0.4223586919E-02 -0.1782727726E-19 -0.5104064166E-02  0.6150126846E+15 -0.3025614416E-02 -0.1467402531E-19 -0.8076503436E-02
  0.0000000000E+00  0.1000000000E+01  0.4698893521E-01 -0.1874891261E-01  0.8457736060E-21  0.3053914330E-02  0.6150126846E+15 -0.1858085391E-01  0.9074247633E-21  0.1816358095E-02
  0.4000000000E+00  0.1000000000E+01  0.1429536967E+00  0.4731463047E+00  0.8182777682E-17 -0.8274087157E-01  0.6150126846E+15  0.4734269353E+00  0.8184685940E-17 -0.1006725611E+00
  0.3530110648E+00  0.1000000000E+01  0.1429536967E+00  0.2292921401E+00  0.4066894788E-17 -0.1152631774E+00  0.6150126846E+15  0.2272633710E+00  0.4185244857E-17 -0.1323280679E+00
  0.2570463033E+00  0.1000000000E+01  0.1429536967E+00  0.1699461352E+00  0.9508952556E-18 -0.5052254371E-01  0.6150126846E+15  0.1627321135E+00  0.9413404930E-18 -0.6361839257E-01
  0.1429536967E+00  0.1000000000E+01  0.1429536967E+00  0.1510576491E-01  0.9941727570E-19 -0.7568257010E-01  0.6150126846E+15  0.8754143778E-02  0.9605380511E-19 -0.8181129379E-01
  0.4698893521E-01  0.1000000000E+01  0.1429536967E+00 -0.8530156804E-02 -0.3926624800E-19  0.1806515119E-02  0.6150126846E+15 -0.9886099718E-02 -0.2582004162E-19 -0.9159293149E-03
  0.0000000000E+00  0.1000000000E+01  0.1429536967E+00 -0.2174074748E-01 -0.2910377695E-21 -0.2710610910E-03  0.6150126846E+15 -0.2180625041E-01 -0.1837210430E-21 -0.1779536934E-02
  0.4000000000E+00  0.1000000000E+01  0.2570463033E+00  0.4575319906E+00  0.4926384219E-18 -0.2790065160E+00  0.6150126846E+15  0.4573035804E+00  0.4990665419E-18 -0.2848222230E+00
  0.3530110648E+00  0.1000000000E+01  0.2570463033E+00  0.3311989601E+00 -0.9691403965E-19 -0.3160828069E+00  0.6150126846E+15  0.3287775268E+00 -0.1949607108E-18 -0.3228810336E+00
  0.2570463033E+00  0.1000000000E+01  0.2570463033E+00  0.2318362645E+00 -0.3044726061E-18 -0.1805500463E+00  0.6150126846E+15  0.2212671608E+00 -0.3019052459E-18 -0.1889146413E+00
  0.1429536967E+00  0.1000000000E+01  0.2570463033E+00  0.7524395286E-01  0.1977504870E-18 -0.1965040021E+00  0.6150126846E+15  0.6428404470E-01  0.1999767777E-18 -0.2018973576E+00
  0.4698893521E-01  0.1000000000E+01  0.2570463033E+00  0.1075669004E-01  0.5679045740E-18 -0.2235295124E-01  0.6150126846E+15  0.8197348228E-02  0.5405339128E-18 -0.2451146039E-01
  0.0000000000E+00  0.1000000000E+01  0.2570463033E+00 -0.1463988067E-01 -0.3291815576E-20 -0.3678526805E-04  0.6150126846E+15 -0.1459239650E-01 -0.3214481968E-20 -0.1397221601E-02
  0.4000000000E+00  0.1000000000E+01  0.3530110648E+00  0.4450087051E+00 -0.3911177047E-18 -0.4183663839E+00  0.6150126846E+15  0.4456255772E+00 -0.3904002445E-18 -0.4247309384E+00
  0.3530110648E+00  0.1000000000E+01  0.3530110648E+00  0.3330217056E+00 -0.6442877923E-18 -0.4335207949E+00  0.6150126846E+15  0.3349576842E+00 -0.6466769870E-18 -0.4412413055E+00
  0.2570463033E+00  0.1000000000E+01  0.3530110648E+00  0.2568293751E+00 -0.1493463386E-17 -0.3024767046E+00  0.6150126846E+15  0.2468304091E+00 -0.1328338480E-17 -0.3139668427E+00
  0.1429536967E+00  0.1000000000E+01  0.3530110648E+00  0.9877128542E-01 -0.1585062122E-19 -0.2974077388E+00  0.6150126846E+15  0.8272551696E-01  0.5320764241E-19 -0.3056170755E+00
  0.4698893521E-01  0.1000000000E+01  0.3530110648E+00  0.1866697078E-01 -0.1051794181E-18 -0.7586218024E-01  0.6150126846E+15  0.1288219727E-01 -0.8106457488E-19 -0.7859214219E-01
  0.0000000000E+00  0.1000000000E+01  0.3530110648E+00 -0.1459421837E-01  0.5462230874E-20 -0.6944220025E-04  0.6150126846E+15 -0.1457738146E-01  0.5275369637E-20 -0.1463988599E-02
  0.4000000000E+00  0.1000000000E+01  0.4000000000E+00  0.4154778391E+00  0.9374390178E-18 -0.4695604707E+00  0.6150126846E+15  0.4140792502E+00  0.9408622924E-18 -0.4736615241E+00
  0.3530110648E+00  0.1000000000E+01  0.4000000000E+00  0.3571179387E+00  0.2432507002E-18 -0.4859340467E+00  0.6150126846E+15  0.3602305351E+00  0.2383033115E-18 -0.4880481499E+00
  0.2570463033E+00  0.1000000000E+01  0.4000000000E+00  0.2652461277E+00 -0.1937515467E-17 -0.3622271201E+00  0.6150126846E+15  0.2558852380E+00 -0.1943010924E-17 -0.3658428394E+00
  0.1429536967E+00  0.1000000000E+01  0.4000000000E+00  0.1156260758E+00 -0.3326018822E-18 -0.3553059947E+00  0.6150126846E+15  0.9746520348E-01 -0.3721498862E-18 -0.3583695281E+00
  0.4698893521E-01  0.1000000000E+01  0.4000000000E+00  0.1735096684E-01 -0.3632692594E-18 -0.1046268609E+00  0.6150126846E+15  0.1018291343E-01 -0.3556518780E-18 -0.1060050542E+00
  0.0000000000E+00  0.1000000000E+01  0.4000000000E+00 -0.7298165579E-02  0.8513522613E-20 -0.1574466660E-02  0.6150126846E+15 -0.7469720397E-02  0.8294153983E-20 -0.2614442765E-02
ZONE I=6, J=6, K=1, F=POINT
  0.8000000000E+00  0.1000000000E+01  0.0000000000E+00  0.1689504616E-01 -0.6746217185E-19 -0.1071185386E-01  0.6150126846E+15  0.1730992917E-01 -0.7016462683E-19 -0.1172339231E-01
  0.7530110648E+00  0.1000000000E+01  0.0000000000E+00  0.6619026384E-03  0.7437316678E-19  0.5870650705E-02  0.6150126846E+15  0.1161267659E-02  0.8406849230E-19  0.5727028865E-02
  0.6570463033E+00  0.1000000000E+01  0.0000000000E+00 -0.2036988246E-02 -0.2893185038E-20 -0.1349543450E-03  0.6150126846E+15 -0.1214782013E-02  0.9492293467E-20 -0.2580916897E-04
  0.5429536967E+00  0.1000000000E+01  0.0000000000E+00 -0.3588407982E-03 -0.6857048196E-20  0.6449631641E-02  0.6150126846E+15  0.6069391392E-03  0.1998641823E-19  0.6575007093E-02
  0.4469889352E+00  0.1000000000E+01  0.0000000000E+00 -0.2621340594E-02 -0.5858814896E-19  0.2634368934E-03  0.6150126846E+15 -0.1589243135E-02 -0.2617200774E-19  0.2672345012E-03
  0.4000000000E+00  0.1000000000E+01  0.0000000000E+00  0.1410885394E-01  0.3358651798E-19  0.6451127142E-02  0.6150126846E+15  0.1530695226E-01  0.3366510683E-19  0.6477999418E-02
  0.8000000000E+00  0.1000000000E+01  0.4698893521E-01  0.3341605821E+00 -0.2718754252E-16  0.3373002795E-01  0.6150126846E+15  0.3335640438E+00 -0.2717299434E-16  0.1364590522E-01
  0.7530110648E+00  0.1000000000E+01  0.4698893521E-01  0.5373886639E+00 -0.2717181977E-16 -0.2665533270E-01  0.6150126846E+15  0.5367507636E+00 -0.2711297824E-16 -0.4794987900E-01
  0.6570463033E+00  0.1000000000E+01  0.4698893521E-01  0.3114612358E+00 -0.5953529721E-17  0.2448717716E-02  0.6150126846E+15  0.3109120301E+00 -0.5991347885E-17 -0.1911518566E-01
  0.5429536967E+00  0.1000000000E+01  0.4698893521E-01  0.3231219051E+00  0.4541329880E-17  0.1011697926E-01  0.6150126846E+15  0.3234973749E+00  0.4534300089E-17 -0.1042083423E-01
  0.4469889352E+00  0.1000000000E+01  0.4698893521E-01  0.1767846631E+00  0.3556520097E-17  0.2035829606E-01  0.6150126846E+15  0.1780016942E+00  0.3566128001E-17  0.3287683630E-03
  0.4000000000E+00  0.1000000000E+01  0.4698893521E-01  0.2792799734E+00  0.2156479585E-17 -0.2286879131E-01  0.6150126846E+15  0.2800024143E+00  0.2153644717E-17 -0.4214746537E-01
  0.8000000000E+00  0.1000000000E+01  0.1429536967E+00  0.7653739233E+00 -0.5493426763E-16 -0.2566653663E+00  0.6150126846E+15  0.7664661651E+00 -0.5488930751E-16 -0.2868183590E+00
  0.7530110648E+00  0.1000000000E+01  0.1429536967E+00  0.1108853878E+01 -0.3657372447E-16 -0.1345775870E+00  0.6150126846E+15  0.1107270366E+01 -0.3637425331E-16 -0.1632527916E+00
  0.6570463033E+00  0.1000000000E+01  0.1429536967E+00  0.7228236705E+00 -0.7858424662E-17 -0.1636086156E+00  0.6150126846E+15  0.7198653740E+00 -0.7748656954E-17 -0.1871009958E+00
  0.5429536967E+00  0.1000000000E+01  0.1429536967E+00  0.6809134727E+00  0.8943693851E-17 -0.3546097392E-01  0.6150126846E+15  0.6802517056E+00  0.8909618838E-17 -0.5544435466E-01
  0.4469889352E+00  0.1000000000E+01  0.1429536967E+00  0.3909211578E+00  0.8160506712E-17 -0.1106722656E+00  0.6150126846E+15  0.3909718844E+00  0.8252588804E-17 -0.1291532518E+00
  0.4000000000E+00  0.1000000000E+01  0.1429536967E+00  0.5254387052E+00  0.8915840662E-17 -0.8220785790E-01  0.6150126846E+15  0.5249982044E+00  0.8908353669E-17 -0.1001424762E+00
  0.8000000000E+00  0.1000000000E+01  0.2570463033E+00  0.1166940354E+01 -0.1036253082E-16 -0.6140069814E+00  0.6150126846E+15  0.1166732691E+01 -0.1037577756E-16 -0.6366472813E+00
  0.7530110648E+00  0.1000000000E+01  0.2570463033E+00  0.1156139955E+01 -0.8108751178E-17 -0.4139447558E+00  0.6150126846E+15  0.1147640950E+01 -0.8372713996E-17 -0.4347130540E+00
  0.6570463033E+00  0.1000000000E+01  0.2570463033E+00  0.8694199033E+00 -0.7328328338E-17 -0.4382049588E+00  0.6150126846E+15  0.8599172790E+00 -0.7051248745E-17 -0.4529880049E+00
  0.5429536967E+00  0.1000000000E+01  0.2570463033E+00  0.6963389109E+00 -0.2851304448E-18 -0.2266627528E+00  0.6150126846E+15  0.6924952919E+00 -0.3512153151E-18 -0.2353526077E+00
  0.4469889352E+00  0.1000000000E+01  0.2570463033E+00  0.4776474357E+00  0.8265555588E-18 -0.3319682876E+00  0.6150126846E+15  0.4763060710E+00  0.7503132889E-18 -0.3378262064E+00
  0.4000000000E+00  0.1000000000E+01  0.2570463033E+00  0.4901163374E+00  0.5269178529E-18 -0.2783939155E+00  0.6150126846E+15  0.4897092365E+00  0.5313367845E-18 -0.2842386778E+00
  0.8000000000E+00  0.1000000000E+01  0.3530110648E+00  0.9530695545E+00  0.1641873246E-17 -0.8450881153E+00  0.6150126846E+15  0.9543088737E+00  0.1615674137E-17 -0.8604633801E+00
  0.7530110648E+00  0.1000000000E+01  0.3530110648E+00  0.1002853254E+01  0.5608416676E-17 -0.6912052361E+00  0.6150126846E+15  0.9937824503E+00  0.5056541099E-17 -0.7088593405E+00
  0.6570463033E+00  0.1000000000E+01  0.3530110648E+00  0.7672288646E+00 -0.4889304428E-17 -0.6272029049E+00  0.6150126846E+15  0.7532439581E+00 -0.4138665159E-17 -0.6451203135E+00
  0.5429536967E+00  0.1000000000E+01  0.3530110648E+00  0.6361456583E+00 -0.7778399566E-17 -0.3971243667E+00  0.6150126846E+15  0.6274332354E+00 -0.7109644476E-17 -0.4094093161E+00
  0.4469889352E+00  0.1000000000E+01  0.3530110648E+00  0.4239864668E+00 -0.1116332028E-17 -0.4576582686E+00  0.6150126846E+15  0.4206013078E+00 -0.1055971670E-17 -0.4652678515E+00
  0.4000000000E+00  0.1000000000E+01  0.3530110648E+00  0.4780887781E+00 -0.4204164193E-18 -0.4181956362E+00  0.6150126846E+15  0.4785330443E+00 -0.4210843721E-18 -0.4245382934E+00
  0.8000000000E+00  0.1000000000E+01  0.4000000000E+00  0.9013077327E+00 -0.9513094208E-17 -0.9814403415E+00  0.6150126846E+15  0.9058585476E+00 -0.9513284376E-17 -0.9924592944E+00
  0.7530110648E+00  0.1000000000E+01  0.4000000000E+00  0.8373016534E+00 -0.5362561803E-17 -0.7738449547E+00  0.6150126846E+15  0.8304464727E+00 -0.5452690618E-17 -0.7870063288E+00
  0.6570463033E+00  0.1000000000E+01  0.4000000000E+00  0.6825860796E+00 -0.4011001451E-17 -0.7069337285E+00  0.6150126846E+15  0.6678968930E+00 -0.4158925829E-17 -0.7242161587E+00
  0.5429536967E+00  0.1000000000E+01  0.4000000000E+00  0.5676906659E+00  0.1569599240E-17 -0.4950314671E+00  0.6150126846E+15  0.5562631379E+00  0.1076507326E-17 -0.5082148897E+00
  0.4469889352E+00  0.1000000000E+01  0.4000000000E+00  0.4528165451E+00  0.1783138577E-17 -0.5219116747E+00  0.6150126846E+15  0.4472250059E+00  0.1711380178E-17 -0.5286169180E+00
  0.4000000000E+00  0.1000000000E+01  0.4000000000E+00  0.4286227436E+00  0.9554242653E-18 -0.4688891140E+00  0.6150126846E+15  0.4269209995E+00  0.9573040619E-18 -0.4729767397E+00
ZONE I=6, J=6, K=1, F=POINT
  0.1200000000E+01  0.1000000000E+01  0.0000000000E+00 -0.3211803726E-01  0.7458744244E-19  0.3662377020E-01  0.6150126846E+15 -0.3248257294E-01  0.7651739824E-19  0.3635782411E-01
  0.1153011065E+01  0.1000000000E+01  0.0000000000E+00 -0.5355753493E-02 -0.1901197648E-18 -0.9505911035E-02  0.6150126846E+15 -0.5428295243E-02 -0.1936137304E-18 -0.9468104644E-02
  0.1057046303E+01  0.1000000000E+01  0.0000000000E+00  0.2034656776E-02  0.3074651046E-19  0.6115043698E-02  0.6150126846E+15  0.1788658958E-02  0.2373874476E-19  0.6086643761E-02
  0.9429536967E+00  0.1000000000E+01  0.0000000000E+00 -0.2351566000E-02  0.2397275973E-19 -0.8019782829E-02  0.6150126846E+15 -0.2725789999E-02  0.2447546836E-19 -0.8013235608E-02
  0.8469889352E+00  0.1000000000E+01  0.0000000000E+00  0.2993985126E-02 -0.2796499951E-20  0.5436603116E-02  0.6150126846E+15  0.2833329546E-02 -0.3035182811E-20  0.5222574538E-02
  0.8000000000E+00  0.1000000000E+01  0.0000000000E+00 -0.2826699743E-01 -0.7711424019E-19 -0.1018044900E-01  0.6150126846E+15 -0.2824344727E-01 -0.8006823803E-19 -0.1114138010E-01
  0.1200000000E+01  0.1000000000E+01  0.4698893521E-01  0.1876268524E+01 -0.4167526850E-16 -0.2001342218E+00  0.6150126846E+15  0.1876622047E+01 -0.4166334004E-16 -0.1999636114E+00
  0.1153011065E+01  0.1000000000E+01  0.4698893521E-01  0.1232651500E+01 -0.2505275711E-16 -0.4812561780E-01  0.6150126846E+15  0.1233854140E+01 -0.2508904779E-16 -0.4978109949E-01
  0.1057046303E+01  0.1000000000E+01  0.4698893521E-01  0.1200718603E+01 -0.9114106489E-17 -0.7578570054E-01  0.6150126846E+15  0.1201732999E+01 -0.9122258997E-17 -0.8384813449E-01
  0.9429536967E+00  0.1000000000E+01  0.4698893521E-01  0.6966891440E+00 -0.1521690052E-16 -0.5546625165E-01  0.6150126846E+15  0.6969678531E+00 -0.1523512157E-16 -0.7055252277E-01
  0.8469889352E+00  0.1000000000E+01  0.4698893521E-01  0.6535850683E+00 -0.3129553238E-16 -0.5291343794E-01  0.6150126846E+15  0.6535895913E+00 -0.3128108940E-16 -0.7231260788E-01
  0.8000000000E+00  0.1000000000E+01  0.4698893521E-01  0.2717842251E+00 -0.2647933093E-16  0.3579185122E-01  0.6150126846E+15  0.2715414539E+00 -0.2647449470E-16  0.1566985472E-01
  0.1200000000E+01  0.1000000000E+01  0.1429536967E+00  0.3872003688E+01 -0.5676358774E-16 -0.4245332069E+00  0.6150126846E+15  0.3878087103E+01 -0.5682216524E-16 -0.4315188688E+00
  0.1153011065E+01  0.1000000000E+01  0.1429536967E+00  0.2537273122E+01 -0.6517684139E-16 -0.6198285293E+00  0.6150126846E+15  0.2545252517E+01 -0.6474279604E-16 -0.6286964211E+00
  0.1057046303E+01  0.1000000000E+01  0.1429536967E+00  0.2417933755E+01 -0.3524436006E-16 -0.4032233962E+00  0.6150126846E+15  0.2426691007E+01 -0.3529224850E-16 -0.4177967087E+00
  0.9429536967E+00  0.1000000000E+01  0.1429536967E+00  0.1441580785E+01 -0.3212617221E-16 -0.5404637210E+00  0.6150126846E+15  0.1449094067E+01 -0.3214866917E-16 -0.5632077189E+00
  0.8469889352E+00  0.1000000000E+01  0.1429536967E+00  0.1340648372E+01 -0.5066794469E-16 -0.2536832461E+00  0.6150126846E+15  0.1344564156E+01 -0.5062337468E-16 -0.2826580155E+00
  0.8000000000E+00  0.1000000000E+01  0.1429536967E+00  0.6819160111E+00 -0.5714072448E-16 -0.2582092091E+00  0.6150126846E+15  0.6827218042E+00 -0.5715725975E-16 -0.2883433721E+00
  0.1200000000E+01  0.1000000000E+01  0.2570463033E+00  0.3040283032E+01 -0.1805209448E-16 -0.1114750941E+01  0.6150126846E+15  0.3045768065E+01 -0.1799761470E-16 -0.1119145421E+01
  0.1153011065E+01  0.1000000000E+01  0.2570463033E+00  0.2668951398E+01 -0.5369115754E-16 -0.1360253759E+01  0.6150126846E+15  0.2680710082E+01 -0.5485237781E-16 -0.1365605043E+01
  0.1057046303E+01  0.1000000000E+01  0.2570463033E+00  0.2210194793E+01 -0.3981714162E-16 -0.9787136038E+00  0.6150126846E+15  0.2225785226E+01 -0.3979816856E-16 -0.9877598611E+00
  0.9429536967E+00  0.1000000000E+01  0.2570463033E+00  0.1648709719E+01 -0.3301045140E-16 -0.1129281140E+01  0.6150126846E+15  0.1664549570E+01 -0.3381888672E-16 -0.1144917569E+01
  0.8469889352E+00  0.1000000000E+01  0.2570463033E+00  0.1409757087E+01 -0.1201141662E-16 -0.6352028059E+00  0.6150126846E+15  0.1419684397E+01 -0.1199904055E-16 -0.6567528856E+00
  0.8000000000E+00  0.1000000000E+01  0.2570463033E+00  0.1128182586E+01 -0.1052864117E-16 -0.6161935269E+00  0.6150126846E+15  0.1128348007E+01 -0.1053964220E-16 -0.6386429320E+00
  0.1200000000E+01  0.1000000000E+01  0.3530110648E+00  0.2687745662E+01  0.4150033444E-17 -0.1855240615E+01  0.6150126846E+15  0.2694602778E+01  0.4184546004E-17 -0.1853969362E+01
  0.1153011065E+01  0.1000000000E+01  0.3530110648E+00  0.2147743164E+01 -0.1366962524E-16 -0.1782577521E+01  0.6150126846E+15  0.2162610575E+01 -0.1383366318E-16 -0.1782630506E+01
  0.1057046303E+01  0.1000000000E+01  0.3530110648E+00  0.1817452431E+01 -0.2373292484E-16 -0.1440992790E+01  0.6150126846E+15  0.1838660578E+01 -0.2370565031E-16 -0.1445547612E+01
  0.9429536967E+00  0.1000000000E+01  0.3530110648E+00  0.1319892481E+01 -0.2265534524E-16 -0.1386158505E+01  0.6150126846E+15  0.1341897173E+01 -0.2326613900E-16 -0.1397479916E+01
  0.8469889352E+00  0.1000000000E+01  0.3530110648E+00  0.1215689565E+01 -0.3855863141E-17 -0.9564156115E+00  0.6150126846E+15  0.1229264831E+01 -0.3375784669E-17 -0.9708197932E+00
  0.8000000000E+00  0.1000000000E+01  0.3530110648E+00  0.9052580081E+00  0.1703612594E-17 -0.8452625140E+00  0.6150126846E+15  0.9068953185E+00  0.1670895272E-17 -0.8607166099E+00
  0.1200000000E+01  0.1000000000E+01  0.4000000000E+00  0.2220365302E+01  0.1023775124E-18 -0.1964366415E+01  0.6150126846E+15  0.2228878808E+01  0.1355853279E-18 -0.1969109723E+01
  0.1153011065E+01  0.1000000000E+01  0.4000000000E+00  0.2038039262E+01 -0.4475773337E-17 -0.2077394665E+01  0.6150126846E+15  0.2053728448E+01 -0.4325288996E-17 -0.2083673453E+01
  0.1057046303E+01  0.1000000000E+01  0.4000000000E+00  0.1571364600E+01 -0.1725262473E-16 -0.1620022878E+01  0.6150126846E+15  0.1594992540E+01 -0.1717637571E-16 -0.1627446748E+01
  0.9429536967E+00  0.1000000000E+01  0.4000000000E+00  0.1201736599E+01 -0.2551412468E-16 -0.1549115624E+01  0.6150126846E+15  0.1225178334E+01 -0.2617012116E-16 -0.1559731146E+01
  0.8469889352E+00  0.1000000000E+01  0.4000000000E+00  0.1004118667E+01 -0.1634090388E-16 -0.1053739430E+01  0.6150126846E+15  0.1018201082E+01 -0.1615309640E-16 -0.1063690023E+01
  0.8000000000E+00  0.1000000000E+01  0.4000000000E+00  0.8955317302E+00 -0.9493238093E-17 -0.9843236400E+00  0.6150126846E+15  0.9000467181E+00 -0.9496554180E-17 -0.9951728973E+00
ZONE I=6, J=6, K=1, F=POINT
  0.1600000000E+01  0.1000000000E+01  0.0000000000E+00  0.1311487865E+00 -0.8646846521E-18 -0.7319144962E-01  0.6150126846E+15  0.1309204573E+00 -0.9834064759E-18 -0.7338582523E-01
  0.1553011065E+01  0.1000000000E+01  0.0000000000E+00  0.1006530755E-01 -0.1367759023E-17  0.4544295689E-01  0.6150126846E+15  0.9821274747E-02 -0.1387250465E-17  0.4517264668E-01
  0.1457046303E+01  0.1000000000E+01  0.0000000000E+00 -0.7827335507E-02 -0.6349045497E-19 -0.3304714517E-02  0.6150126846E+15 -0.8222704018E-02 -0.7190026344E-19 -0.3254785601E-02
  0.1342953697E+01  0.1000000000E+01  0.0000000000E+00  0.5083150952E-02  0.4116094005E-18  0.3004886432E-01  0.6150126846E+15  0.4513224811E-02  0.3818607341E-18  0.2996089327E-01
  0.1246988935E+01  0.1000000000E+01  0.0000000000E+00 -0.7967817615E-02  0.1127421742E-18 -0.8077765144E-02  0.6150126846E+15 -0.8861582357E-02  0.1132424019E-18 -0.8053462360E-02
  0.1200000000E+01  0.1000000000E+01  0.0000000000E+00  0.5840792006E-01  0.7900704119E-19  0.3662910387E-01  0.6150126846E+15  0.5767398741E-01  0.8116065683E-19  0.3633682878E-01
  0.1600000000E+01  0.1000000000E+01  0.4698893521E-01  0.2627102728E+01 -0.8695326208E-16  0.1710390838E+00  0.6150126846E+15  0.2626808629E+01 -0.8693523667E-16  0.1667206387E+00
  0.1553011065E+01  0.1000000000E+01  0.4698893521E-01  0.3059763038E+01 -0.4366720666E-16 -0.3283822625E+00  0.6150126846E+15  0.3059748309E+01 -0.4367464599E-16 -0.3325079442E+00
  0.1457046303E+01  0.1000000000E+01  0.4698893521E-01  0.2049935870E+01 -0.6178051878E-17 -0.1161276506E+00  0.6150126846E+15  0.2049853379E+01 -0.6169854063E-17 -0.1197060187E+00
  0.1342953697E+01  0.1000000000E+01  0.4698893521E-01  0.2060385321E+01  0.3221401704E-16 -0.8039579833E-01  0.6150126846E+15  0.2058976047E+01  0.3219690431E-16 -0.8152476407E-01
  0.1246988935E+01  0.1000000000E+01  0.4698893521E-01  0.1552205035E+01 -0.4029961218E-17 -0.2687922284E-01  0.6150126846E+15  0.1550629361E+01 -0.4094008210E-17 -0.2630597458E-01
  0.1200000000E+01  0.1000000000E+01  0.4698893521E-01  0.1976121841E+01 -0.4598113500E-16 -0.2058289988E+00  0.6150126846E+15  0.1974888808E+01 -0.4594749006E-16 -0.2053278721E+00
  0.1600000000E+01  0.1000000000E+01  0.1429536967E+00  0.4563985528E+01 -0.2663304189E-15 -0.2030358779E+01  0.6150126846E+15  0.4554302504E+01 -0.2661940977E-15 -0.2043088336E+01
  0.1553011065E+01  0.1000000000E+01  0.1429536967E+00  0.6225856285E+01 -0.1617550858E-15 -0.1086177418E+01  0.6150126846E+15  0.6227002859E+01 -0.1617546198E-15 -0.1100484343E+01
  0.1457046303E+01  0.1000000000E+01  0.1429536967E+00  0.4179069665E+01  0.3214566190E-16 -0.9413339945E+00  0.6150126846E+15  0.4179128102E+01  0.3189438759E-16 -0.9550264262E+00
  0.1342953697E+01  0.1000000000E+01  0.1429536967E+00  0.4308121852E+01  0.1107781994E-15 -0.1167598659E+00  0.6150126846E+15  0.4304247590E+01  0.1106136910E-15 -0.1276366833E+00
  0.1246988935E+01  0.1000000000E+01  0.1429536967E+00  0.3173236899E+01  0.2977112798E-16 -0.5528508308E+00  0.6150126846E+15  0.3171136010E+01  0.3013752271E-16 -0.5599977841E+00
  0.1200000000E+01  0.1000000000E+01  0.1429536967E+00  0.4036080062E+01 -0.6095284311E-16 -0.4198088843E+00  0.6150126846E+15  0.4034360572E+01 -0.6091457530E-16 -0.4272120954E+00
  0.1600000000E+01  0.1000000000E+01  0.2570463033E+00  0.7836220318E+01  0.4695004158E-16 -0.4066493685E+01  0.6150126846E+15  0.7848873673E+01  0.4695362146E-16 -0.4079789662E+01
  0.1553011065E+01  0.1000000000E+01  0.2570463033E+00  0.6763567574E+01  0.6771119108E-16 -0.2674060108E+01  0.6150126846E+15  0.6768914880E+01  0.6752680834E-16 -0.2684290753E+01
  0.1457046303E+01  0.1000000000E+01  0.2570463033E+00  0.5507228553E+01  0.1638917932E-15 -0.2228120593E+01  0.6150126846E+15  0.5506271393E+01  0.1636437450E-15 -0.2237283257E+01
  0.1342953697E+01  0.1000000000E+01  0.2570463033E+00  0.4226714265E+01  0.1341325093E-15 -0.8019326973E+00  0.6150126846E+15  0.4220788845E+01  0.1337025657E-15 -0.8077493411E+00
  0.1246988935E+01  0.1000000000E+01  0.2570463033E+00  0.3316365839E+01  0.3734015816E-16 -0.1352375732E+01  0.6150126846E+15  0.3312777412E+01  0.3706124407E-16 -0.1356045370E+01
  0.1200000000E+01  0.1000000000E+01  0.2570463033E+00  0.3083381849E+01 -0.1839000387E-16 -0.1107304747E+01  0.6150126846E+15  0.3088265218E+01 -0.1832973719E-16 -0.1113250199E+01
  0.1600000000E+01  0.1000000000E+01  0.3530110648E+00  0.5573069228E+01  0.8620831574E-16 -0.4734319794E+01  0.6150126846E+15  0.5580155593E+01  0.8623900926E-16 -0.4729715474E+01
  0.1553011065E+01  0.1000000000E+01  0.3530110648E+00  0.5718405163E+01  0.1039147919E-15 -0.4190953469E+01  0.6150126846E+15  0.5724215851E+01  0.1039710725E-15 -0.4187547437E+01
  0.1457046303E+01  0.1000000000E+01  0.3530110648E+00  0.4637354111E+01  0.1367970557E-15 -0.3200934893E+01  0.6150126846E+15  0.4634710962E+01  0.1364189480E-15 -0.3197784580E+01
  0.1342953697E+01  0.1000000000E+01  0.3530110648E+00  0.3736173746E+01  0.1195825250E-15 -0.1977703915E+01  0.6150126846E+15  0.3728366159E+01  0.1192562885E-15 -0.1971899977E+01
  0.1246988935E+01  0.1000000000E+01  0.3530110648E+00  0.2683686877E+01  0.3746578191E-16 -0.1931835730E+01  0.6150126846E+15  0.2683071261E+01  0.3756140907E-16 -0.1928431809E+01
  0.1200000000E+01  0.1000000000E+01  0.3530110648E+00  0.2764151079E+01  0.4210139199E-17 -0.1856032085E+01  0.6150126846E+15  0.2770077047E+01  0.4227096187E-17 -0.1854363078E+01
  0.1600000000E+01  0.1000000000E+01  0.4000000000E+00  0.5586046472E+01  0.6295739116E-16 -0.5585760126E+01  0.6150126846E+15  0.5593526016E+01  0.6296414725E-16 -0.5580586403E+01
  0.1553011065E+01  0.1000000000E+01  0.4000000000E+00  0.4869617500E+01  0.9471037912E-16 -0.4232403905E+01  0.6150126846E+15  0.4877744297E+01  0.9469013108E-16 -0.4228076681E+01
  0.1457046303E+01  0.1000000000E+01  0.4000000000E+00  0.4339338526E+01  0.1041274750E-15 -0.3632220737E+01  0.6150126846E+15  0.4335585656E+01  0.1042756953E-15 -0.3628282187E+01
  0.1342953697E+01  0.1000000000E+01  0.4000000000E+00  0.3290522551E+01  0.1101756663E-15 -0.2206994051E+01  0.6150126846E+15  0.3283999990E+01  0.1096970812E-15 -0.2205973905E+01
  0.1246988935E+01  0.1000000000E+01  0.4000000000E+00  0.2601392001E+01  0.2596012642E-16 -0.2305914987E+01  0.6150126846E+15  0.2602654939E+01  0.2598820285E-16 -0.2309104359E+01
  0.1200000000E+01  0.1000000000E+01  0.4000000000E+00  0.2197752978E+01  0.3591319413E-18 -0.1954689176E+01  0.6150126846E+15  0.2206646394E+01  0.3756879802E-18 -0.1960725663E+01
ZONE I=6, J=6, K=1, F=POINT
  0.2000000000E+01  0.1000000000E+01  0.0000000000E+00  0.2401867407E+01  0.6936185401E-19  0.2123319255E+02  0.6150126845E+15  0.2429781764E+01  0.9252778514E-19  0.2215452988E+02
  0.1953011065E+01  0.1000000000E+01  0.0000000000E+00  0.1292385443E+01 -0.3719658681E-16 -0.1360978448E+00  0.6150126846E+15  0.1297125155E+01 -0.3601135543E-16 -0.1496009068E+00
  0.1857046303E+01  0.1000000000E+01  0.0000000000E+00 -0.3058260468E+00 -0.1877419147E-16  0.1538508122E+00  0.6150126846E+15 -0.3061870051E+00 -0.1926698671E-16  0.1517591079E+00
  0.1742953697E+01  0.1000000000E+01  0.0000000000E+00  0.1347633906E+00  0.3236620536E-18 -0.3897336676E-01  0.6150126846E+15  0.1359109728E+00  0.2569361213E-18 -0.3839386186E-01
  0.1646988935E+01  0.1000000000E+01  0.0000000000E+00 -0.1267434916E+00  0.4222861350E-18  0.6073341119E-01  0.6150126846E+15 -0.1261092823E+00  0.3864098203E-18  0.5969218984E-01
  0.1600000000E+01  0.1000000000E+01  0.0000000000E+00  0.8747145686E-01 -0.9435681193E-18 -0.8540164325E-01  0.6150126846E+15  0.8682471776E-01 -0.1064839130E-17 -0.8423521271E-01
  0.2000000000E+01  0.1000000000E+01  0.4698893521E-01 -0.1298887477E-01  0.7316763408E-18  0.4848415884E+02  0.6150126846E+15 -0.5544116206E-01  0.6799676098E-18  0.4865917997E+02
  0.1953011065E+01  0.1000000000E+01  0.4698893521E-01  0.1102226191E+02  0.1484023757E-15  0.1524042784E+01  0.6150126846E+15  0.1101353706E+02  0.1472098532E-15  0.1544981720E+01
  0.1857046303E+01  0.1000000000E+01  0.4698893521E-01  0.1183699074E+02  0.3286827520E-15 -0.1890119300E+01  0.6150126846E+15  0.1184378299E+02  0.3292411588E-15 -0.1885145545E+01
  0.1742953697E+01  0.1000000000E+01  0.4698893521E-01  0.5737195420E+01  0.5160240977E-17 -0.7463752101E+00  0.6150126846E+15  0.5746126807E+01  0.5452776957E-17 -0.7504598660E+00
  0.1646988935E+01  0.1000000000E+01  0.4698893521E-01  0.4160930334E+01 -0.1113747961E-15 -0.7122737492E+00  0.6150126846E+15  0.4163435236E+01 -0.1116816774E-15 -0.7156024051E+00
  0.1600000000E+01  0.1000000000E+01  0.4698893521E-01  0.2462317054E+01 -0.8400548153E-16  0.1566200010E+00  0.6150126846E+15  0.2471204893E+01 -0.8379314661E-16  0.1471160639E+00
  0.2000000000E+01  0.1000000000E+01  0.1429536967E+00 -0.2814002340E+00  0.2420628214E-17  0.5050399111E+02  0.6150126846E+15 -0.2577355809E+00  0.2361725108E-17  0.5044105670E+02
  0.1953011065E+01  0.1000000000E+01  0.1429536967E+00  0.2783800175E+01 -0.5022280901E-15  0.1656006382E+02  0.6150126846E+15  0.2774941809E+01 -0.5017881959E-15  0.1660021127E+02
  0.1857046303E+01  0.1000000000E+01  0.1429536967E+00  0.1238690442E+02 -0.2484347191E-15 -0.3854685497E+01  0.6150126846E+15  0.1239652990E+02 -0.2491877383E-15 -0.3849273508E+01
  0.1742953697E+01  0.1000000000E+01  0.1429536967E+00  0.8870021926E+01  0.9628964967E-16 -0.4661298499E+01  0.6150126846E+15  0.8885126438E+01  0.9677752952E-16 -0.4672189907E+01
  0.1646988935E+01  0.1000000000E+01  0.1429536967E+00  0.7728840903E+01 -0.1280936523E-15 -0.2437645670E+01  0.6150126846E+15  0.7733568327E+01 -0.1277187303E-15 -0.2449262237E+01
  0.1600000000E+01  0.1000000000E+01  0.1429536967E+00  0.4197640373E+01 -0.2824976254E-15 -0.2028438171E+01  0.6150126846E+15  0.4221304658E+01 -0.2829288600E-15 -0.2047051491E+01
  0.2000000000E+01  0.1000000000E+01  0.2570463033E+00  0.1599026194E-01  0.1026657722E-17  0.4987130934E+02  0.6150126846E+15  0.1532680532E-01  0.9448700878E-18  0.4987709358E+02