TITLE = "Generated from ../MESH/Convergence_0000000000.hmesh and Convergence_0000005500.hsol"
VARIABLES = "x","y","z","veloT_x","veloT_y","veloT_z","slr_4","velo_x","velo_y","velo_z"
ZONE I=6, J=6, K=1, F=POINT
  0.4000000000E+00  0.1000000000E+01  0.0000000000E+00 -0.1176999505E-01  0.2779351091E-19  0.7702852385E-02  0.6397685534E+15 -0.1167683324E-01  0.2788469182E-19  0.7350282781E-02
  0.3530110648E+00  0.1000000000E+01  0.0000000000E+00 -0.1276384721E-02  0.8888419473E-20 -0.2591274346E-03  0.6397685534E+15 -0.1095401470E-02  0.8282604228E-20 -0.2942394135E-03
  0.2570463033E+00  0.1000000000E+01  0.0000000000E+00  0.7167575464E-04  0.1429019955E-20  0.2372406276E-02  0.6397685534E+15  0.2496020393E-03  0.9838220292E-21  0.2349523835E-02
  0.1429536967E+00  0.1000000000E+01  0.0000000000E+00 -0.6304824032E-03  0.3476001892E-21 -0.1090058143E-02  0.6397685534E+15 -0.4107011266E-03  0.2217842568E-21 -0.1050977910E-02
  0.4698893521E-01  0.1000000000E+01  0.0000000000E+00  0.2142460291E-02 -0.2455666016E-20  0.1957526522E-02  0.6397685534E+15  0.2336905461E-02 -0.2413197921E-20  0.1922472943E-02
  0.0000000000E+00  0.1000000000E+01  0.0000000000E+00 -0.7506051409E-02  0.1503822754E-22  0.2013939786E-02  0.6397685534E+15 -0.7480485212E-02  0.1412321274E-22  0.1978087520E-02
  0.4000000000E+00  0.1000000000E+01  0.4698893521E-01  0.2685553869E+00  0.3169443010E-17 -0.6055725931E-01  0.6397685534E+15  0.2681135794E+00  0.3172593929E-17 -0.5674999277E-01
  0.3530110648E+00  0.1000000000E+01  0.4698893521E-01  0.1256544219E+00  0.2902072528E-17 -0.2115506063E-01  0.6397685534E+15  0.1259278839E+00  0.2895072978E-17 -0.1781679109E-01
  0.2570463033E+00  0.1000000000E+01  0.4698893521E-01  0.9610208609E-01  0.1187194190E-17 -0.2454477947E-01  0.6397685534E+15  0.9678093877E-01  0.1187998737E-17 -0.2349354584E-01
  0.1429536967E+00  0.1000000000E+01  0.4698893521E-01  0.2814402986E-02  0.3471056678E-18 -0.1176713628E-01  0.6397685534E+15  0.3855989895E-02  0.3496349761E-18 -0.1238069938E-01
  0.4698893521E-01  0.1000000000E+01  0.4698893521E-01 -0.1961591045E-02  0.8301451474E-19 -0.8719162459E-02  0.6397685534E+15 -0.9150808719E-03  0.8430038059E-19 -0.9509942935E-02
  0.0000000000E+00  0.1000000000E+01  0.4698893521E-01 -0.1807521401E-01  0.1009461060E-20  0.2047802522E-02  0.6397685534E+15 -0.1807007634E-01  0.1032178514E-20  0.1958915062E-02
  0.4000000000E+00  0.1000000000E+01  0.1429536967E+00  0.6103879302E+00  0.1016598359E-16 -0.1427924741E+00  0.6397685534E+15  0.6120798796E+00  0.1019066316E-16 -0.1308569277E+00
  0.3530110648E+00  0.1000000000E+01  0.1429536967E+00  0.3381797520E+00  0.6540321298E-17 -0.1783907081E+00  0.6397685534E+15  0.3436802855E+00  0.6476883621E-17 -0.1694542076E+00
  0.2570463033E+00  0.1000000000E+01  0.1429536967E+00  0.2302176972E+00  0.2762826253E-17 -0.1116310083E+00  0.6397685534E+15  0.2350648657E+00  0.2765562070E-17 -0.1101430186E+00
  0.1429536967E+00  0.1000000000E+01  0.1429536967E+00  0.3348269682E-01  0.1101824427E-17 -0.1158171165E+00  0.6397685534E+15  0.3487292527E-01  0.1101073189E-17 -0.1174236662E+00
  0.4698893521E-01  0.1000000000E+01  0.1429536967E+00 -0.7530323598E-02  0.2887380526E-18 -0.8537893888E-02  0.6397685534E+15 -0.6824863109E-02  0.2948010586E-18 -0.9823060639E-02
  0.0000000000E+00  0.1000000000E+01  0.1429536967E+00 -0.2143331365E-01  0.2590601022E-21 -0.1513930846E-02  0.6397685534E+15 -0.2141007127E-01  0.2000822000E-21 -0.1819305494E-02
  0.4000000000E+00  0.1000000000E+01  0.2570463033E+00  0.7380419925E+00  0.4555216297E-17 -0.4077456655E+00  0.6397685534E+15  0.7433579548E+00  0.4563731617E-17 -0.3941789363E+00
  0.3530110648E+00  0.1000000000E+01  0.2570463033E+00  0.5366397199E+00  0.3493580780E-17 -0.4493497276E+00  0.6397685534E+15  0.5504377203E+00  0.3669484141E-17 -0.4372138758E+00
  0.2570463033E+00  0.1000000000E+01  0.2570463033E+00  0.3194071753E+00  0.2597580835E-17 -0.3151384564E+00  0.6397685534E+15  0.3309944095E+00  0.2596463939E-17 -0.3079803021E+00
  0.1429536967E+00  0.1000000000E+01  0.2570463033E+00  0.8959852349E-01  0.1842688653E-17 -0.2862935442E+00  0.6397685534E+15  0.9262998103E-01  0.1841995392E-17 -0.2842403417E+00
  0.4698893521E-01  0.1000000000E+01  0.2570463033E+00  0.7753014628E-02  0.1173745142E-17 -0.4884932032E-01  0.6397685534E+15  0.9173739329E-02  0.1165270895E-17 -0.4950752796E-01
  0.0000000000E+00  0.1000000000E+01  0.2570463033E+00 -0.1419550181E-01 -0.4326030902E-20 -0.1266982675E-02  0.6397685534E+15 -0.1419615863E-01 -0.3906801364E-20 -0.1592404116E-02
  0.4000000000E+00  0.1000000000E+01  0.3530110648E+00  0.8120086352E+00  0.5104049922E-17 -0.7116749219E+00  0.6397685534E+15  0.8175635411E+00  0.5099282513E-17 -0.6915909570E+00
  0.3530110648E+00  0.1000000000E+01  0.3530110648E+00  0.5918823733E+00  0.4510277395E-17 -0.7146881689E+00  0.6397685534E+15  0.6074584067E+00  0.4514682841E-17 -0.6954508512E+00
  0.2570463033E+00  0.1000000000E+01  0.3530110648E+00  0.3453712705E+00  0.2610254283E-17 -0.5449865542E+00  0.6397685534E+15  0.3621757577E+00  0.2388567465E-17 -0.5295428119E+00
  0.1429536967E+00  0.1000000000E+01  0.3530110648E+00  0.9556790888E-01  0.2330300700E-17 -0.4354161457E+00  0.6397685534E+15  0.1046287801E+00  0.2285032180E-17 -0.4300898062E+00
  0.4698893521E-01  0.1000000000E+01  0.3530110648E+00  0.1122393610E-01  0.6982714997E-18 -0.1129903169E+00  0.6397685534E+15  0.1506213929E-01  0.7004601741E-18 -0.1132159034E+00
  0.0000000000E+00  0.1000000000E+01  0.3530110648E+00 -0.1438374766E-01  0.5105747591E-20 -0.1435151436E-02  0.6397685534E+15 -0.1424504522E-01  0.5543673707E-20 -0.1787359413E-02
  0.4000000000E+00  0.1000000000E+01  0.4000000000E+00  0.8098737991E+00  0.7162470180E-17 -0.8766778793E+00  0.6397685534E+15  0.8179391918E+00  0.7163678851E-17 -0.8429803896E+00
  0.3530110648E+00  0.1000000000E+01  0.4000000000E+00  0.6356018480E+00  0.6233686553E-17 -0.8647656419E+00  0.6397685534E+15  0.6533640825E+00  0.6158964358E-17 -0.8358793243E+00
  0.2570463033E+00  0.1000000000E+01  0.4000000000E+00  0.3531458362E+00  0.2609072693E-17 -0.6663404577E+00  0.6397685534E+15  0.3745222969E+00  0.2693150097E-17 -0.6487415780E+00
  0.1429536967E+00  0.1000000000E+01  0.4000000000E+00  0.1053938496E+00  0.2425866845E-17 -0.5165390459E+00  0.6397685534E+15  0.1187045907E+00  0.2463533007E-17 -0.5124341894E+00
  0.4698893521E-01  0.1000000000E+01  0.4000000000E+00  0.7108066221E-02  0.6864382495E-18 -0.1439977025E+00  0.6397685534E+15  0.1195050665E-01  0.6889457666E-18 -0.1452396734E+00
  0.0000000000E+00  0.1000000000E+01  0.4000000000E+00 -0.6698250435E-02  0.8447229132E-20 -0.2866504123E-02  0.6397685534E+15 -0.6103796079E-02  0.8037962643E-20 -0.3488903281E-02
ZONE I=6, J=6, K=1, F=POINT
  0.8000000000E+00  0.1000000000E+01  0.0000000000E+00  0.1730059601E-01 -0.8488852723E-19 -0.1193337418E-01  0.6397685534E+15  0.1655186242E-01 -0.8841593098E-19 -0.1196598764E-01
  0.7530110648E+00  0.1000000000E+01  0.0000000000E+00  0.1600786644E-02  0.6883343003E-19  0.5903399840E-02  0.6397685534E+15  0.1000881454E-02  0.5274813987E-19  0.5908483740E-02
  0.6570463033E+00  0.1000000000E+01  0.0000000000E+00 -0.7898285505E-03  0.1821524247E-19  0.2991505440E-03  0.6397685534E+15 -0.1176723656E-02  0.1258498127E-19  0.3288279182E-03
  0.5429536967E+00  0.1000000000E+01  0.0000000000E+00  0.8241194408E-03  0.2595574618E-19  0.7138130899E-02  0.6397685534E+15  0.6230214688E-03  0.2007829756E-19  0.7187064812E-02
  0.4469889352E+00  0.1000000000E+01  0.0000000000E+00 -0.1561034101E-02 -0.2677145003E-19  0.6894596218E-03  0.6397685534E+15 -0.1661558124E-02 -0.3062503820E-19  0.7244032651E-03
  0.4000000000E+00  0.1000000000E+01  0.0000000000E+00  0.1507288296E-01  0.3142047994E-19  0.7393624880E-02  0.6397685534E+15  0.1501526755E-01  0.3152743380E-19  0.7062225154E-02
  0.8000000000E+00  0.1000000000E+01  0.4698893521E-01  0.3560769686E+00 -0.2318904263E-16 -0.1762251368E-03  0.6397685534E+15  0.3525804452E+00 -0.2314376415E-16  0.2380454498E-02
  0.7530110648E+00  0.1000000000E+01  0.4698893521E-01  0.5468593394E+00 -0.2269852883E-16 -0.5925110038E-01  0.6397685534E+15  0.5448120648E+00 -0.2258398688E-16 -0.5684116097E-01
  0.6570463033E+00  0.1000000000E+01  0.4698893521E-01  0.3193718368E+00 -0.4282306395E-17 -0.2788768338E-01  0.6397685534E+15  0.3181985953E+00 -0.4296779586E-17 -0.2729388343E-01
  0.5429536967E+00  0.1000000000E+01  0.4698893521E-01  0.3436874612E+00  0.4511213214E-17 -0.1995938360E-01  0.6397685534E+15  0.3425058761E+00  0.4492049073E-17 -0.1892492311E-01
  0.4469889352E+00  0.1000000000E+01  0.4698893521E-01  0.2094587276E+00  0.4119446454E-17 -0.1640251700E-01  0.6397685534E+15  0.2091285172E+00  0.4118545064E-17 -0.1307609032E-01
  0.4000000000E+00  0.1000000000E+01  0.4698893521E-01  0.3104545944E+00  0.2929489477E-17 -0.6133175433E-01  0.6397685534E+15  0.3103341052E+00  0.2930704496E-17 -0.5750494060E-01
  0.8000000000E+00  0.1000000000E+01  0.1429536967E+00  0.1155617324E+01 -0.5252656231E-16 -0.3837673447E+00  0.6397685534E+15  0.1147711757E+01 -0.5272607860E-16 -0.3819738335E+00
  0.7530110648E+00  0.1000000000E+01  0.1429536967E+00  0.1434622102E+01 -0.3276720256E-16 -0.2363806464E+00  0.6397685534E+15  0.1431167488E+01 -0.3277305986E-16 -0.2322666005E+00
  0.6570463033E+00  0.1000000000E+01  0.1429536967E+00  0.9677261959E+00 -0.2823109532E-17 -0.2263019434E+00  0.6397685534E+15  0.9662885191E+00 -0.2757727213E-17 -0.2188642273E+00
  0.5429536967E+00  0.1000000000E+01  0.1429536967E+00  0.8776622501E+00  0.1031283049E-16 -0.8088145339E-01  0.6397685534E+15  0.8740266995E+00  0.1021428258E-16 -0.7123926756E-01
  0.4469889352E+00  0.1000000000E+01  0.1429536967E+00  0.5561169171E+00  0.1010252229E-16 -0.1655123053E+00  0.6397685534E+15  0.5537666576E+00  0.1006137740E-16 -0.1532862051E+00
  0.4000000000E+00  0.1000000000E+01  0.1429536967E+00  0.6620730025E+00  0.1088089900E-16 -0.1422315045E+00  0.6397685534E+15  0.6636426743E+00  0.1090546950E-16 -0.1303000444E+00
  0.8000000000E+00  0.1000000000E+01  0.2570463033E+00  0.2260761090E+01 -0.1142349703E-16 -0.9807377913E+00  0.6397685534E+15  0.2249058293E+01 -0.1144923046E-16 -0.9696597750E+00
  0.7530110648E+00  0.1000000000E+01  0.2570463033E+00  0.2104099761E+01 -0.7708573203E-17 -0.7183810690E+00  0.6397685534E+15  0.2095192530E+01 -0.7490338652E-17 -0.7060554743E+00
  0.6570463033E+00  0.1000000000E+01  0.2570463033E+00  0.1590244910E+01 -0.2167576745E-17 -0.6377841783E+00  0.6397685534E+15  0.1586764427E+01 -0.2070721616E-17 -0.6243023174E+00
  0.5429536967E+00  0.1000000000E+01  0.2570463033E+00  0.1209202963E+01  0.3916522887E-17 -0.3640070537E+00  0.6397685534E+15  0.1204272678E+01  0.3827741246E-17 -0.3512195074E+00
  0.4469889352E+00  0.1000000000E+01  0.2570463033E+00  0.8413908702E+00  0.4622542590E-17 -0.4589088642E+00  0.6397685534E+15  0.8378394082E+00  0.4799625380E-17 -0.4454895843E+00
  0.4000000000E+00  0.1000000000E+01  0.2570463033E+00  0.7697084166E+00  0.4582264307E-17 -0.4070871602E+00  0.6397685534E+15  0.7747556072E+00  0.4589742513E-17 -0.3935665696E+00
  0.8000000000E+00  0.1000000000E+01  0.3530110648E+00  0.2556644317E+01  0.3592439333E-17 -0.1528630662E+01  0.6397685534E+15  0.2544774650E+01  0.3587251578E-17 -0.1506763363E+01
  0.7530110648E+00  0.1000000000E+01  0.3530110648E+00  0.2415191587E+01  0.6963276821E-17 -0.1295150066E+01  0.6397685534E+15  0.2406681054E+01  0.6493292806E-17 -0.1273047653E+01
  0.6570463033E+00  0.1000000000E+01  0.3530110648E+00  0.1842170470E+01  0.1028604472E-17 -0.1086613559E+01  0.6397685534E+15  0.1840933507E+01  0.7866078876E-18 -0.1066340498E+01
  0.5429536967E+00  0.1000000000E+01  0.3530110648E+00  0.1371282463E+01 -0.5085157880E-18 -0.7513523862E+00  0.6397685534E+15  0.1367082257E+01 -0.3923060174E-18 -0.7332480977E+00
  0.4469889352E+00  0.1000000000E+01  0.3530110648E+00  0.9116809991E+00  0.4832092803E-17 -0.7666946154E+00  0.6397685534E+15  0.9066119090E+00  0.4646986038E-17 -0.7473621558E+00
  0.4000000000E+00  0.1000000000E+01  0.3530110648E+00  0.8452354658E+00  0.5075674485E-17 -0.7114825758E+00  0.6397685534E+15  0.8500010009E+00  0.5071864943E-17 -0.6913957973E+00
  0.8000000000E+00  0.1000000000E+01  0.4000000000E+00  0.2680266866E+01 -0.2291277466E-17 -0.1848643181E+01  0.6397685534E+15  0.2666787307E+01 -0.2282576944E-17 -0.1830719537E+01
  0.7530110648E+00  0.1000000000E+01  0.4000000000E+00  0.2408342889E+01  0.6076869584E-18 -0.1554521541E+01  0.6397685534E+15  0.2398244326E+01  0.4354865202E-18 -0.1532216029E+01
  0.6570463033E+00  0.1000000000E+01  0.4000000000E+00  0.1878396485E+01  0.1695095795E-17 -0.1335052879E+01  0.6397685534E+15  0.1877349700E+01  0.1833607322E-17 -0.1305601970E+01
  0.5429536967E+00  0.1000000000E+01  0.4000000000E+00  0.1377511399E+01  0.8062499487E-17 -0.1005129094E+01  0.6397685534E+15  0.1372908392E+01  0.8184613181E-17 -0.9724200855E+00
  0.4469889352E+00  0.1000000000E+01  0.4000000000E+00  0.9817785545E+00  0.8173892669E-17 -0.9615672933E+00  0.6397685534E+15  0.9757994219E+00  0.7934895556E-17 -0.9263721911E+00
  0.4000000000E+00  0.1000000000E+01  0.4000000000E+00  0.8210380620E+00  0.7184012214E-17 -0.8758607069E+00  0.6397685534E+15  0.8282193865E+00  0.7184961884E-17 -0.8422517034E+00
ZONE I=6, J=6, K=1, F=POINT
  0.1200000000E+01  0.1000000000E+01  0.0000000000E+00 -0.3189511269E-01  0.5740944019E-19  0.3688482501E-01  0.6397685534E+15 -0.3397682220E-01  0.5798496464E-19  0.3754281283E-01
  0.1153011065E+01  0.1000000000E+01  0.0000000000E+00 -0.4803933366E-02 -0.2076008908E-18 -0.9661394713E-02  0.6397685534E+15 -0.6831042918E-02 -0.3056822334E-18 -0.9375476526E-02
  0.1057046303E+01  0.1000000000E+01  0.0000000000E+00  0.2264815235E-02  0.2213983602E-19  0.5830831185E-02  0.6397685534E+15  0.6266966817E-03 -0.2092791663E-19  0.5900621710E-02
  0.9429536967E+00  0.1000000000E+01  0.0000000000E+00 -0.2299763030E-02  0.4556141007E-20 -0.8261517026E-02  0.6397685534E+15 -0.3627828638E-02  0.1713818436E-20 -0.8206794797E-02
  0.8469889352E+00  0.1000000000E+01  0.0000000000E+00  0.3173865790E-02 -0.2216990038E-19  0.5245412978E-02  0.6397685534E+15  0.2244522688E-02 -0.2294315310E-19  0.5238099226E-02
  0.8000000000E+00  0.1000000000E+01  0.0000000000E+00 -0.2772649723E-01 -0.9458910035E-19 -0.1137259295E-01  0.6397685534E+15 -0.2841656208E-01 -0.9839746261E-19 -0.1142061847E-01
  0.1200000000E+01  0.1000000000E+01  0.4698893521E-01  0.2262421646E+01 -0.4213056132E-16 -0.2124954593E+00  0.6397685534E+15  0.2257653668E+01 -0.4189074779E-16 -0.2240617311E+00
  0.1153011065E+01  0.1000000000E+01  0.4698893521E-01  0.1567178270E+01 -0.2608991162E-16 -0.6692226481E-01  0.6397685534E+15  0.1562277020E+01 -0.2592029983E-16 -0.7788938379E-01
  0.1057046303E+01  0.1000000000E+01  0.4698893521E-01  0.1419479155E+01 -0.1193436945E-16 -0.1008495731E+00  0.6397685534E+15  0.1414187252E+01 -0.1201052481E-16 -0.1098078317E+00
  0.9429536967E+00  0.1000000000E+01  0.4698893521E-01  0.7998732704E+00 -0.1436855735E-16 -0.9016826742E-01  0.6397685534E+15  0.7946650746E+00 -0.1422348022E-16 -0.9494202478E-01
  0.8469889352E+00  0.1000000000E+01  0.4698893521E-01  0.6890343372E+00 -0.2728427654E-16 -0.8729966291E-01  0.6397685534E+15  0.6847754421E+00 -0.2709434770E-16 -0.8686065271E-01
  0.8000000000E+00  0.1000000000E+01  0.4698893521E-01  0.2953017725E+00 -0.2249368365E-16  0.1878070903E-02  0.6397685534E+15  0.2923837059E+00 -0.2245917527E-16  0.4383121028E-02
  0.1200000000E+01  0.1000000000E+01  0.1429536967E+00  0.5271348494E+01 -0.5812002167E-16 -0.6454676913E+00  0.6397685534E+15  0.5270166533E+01 -0.5796391592E-16 -0.6605379818E+00
  0.1153011065E+01  0.1000000000E+01  0.1429536967E+00  0.3804678557E+01 -0.6664493084E-16 -0.8556276691E+00  0.6397685534E+15  0.3797985366E+01 -0.6697931710E-16 -0.8698335974E+00
  0.1057046303E+01  0.1000000000E+01  0.1429536967E+00  0.3394160580E+01 -0.3744553873E-16 -0.6435452772E+00  0.6397685534E+15  0.3385651534E+01 -0.3743856241E-16 -0.6547716589E+00
  0.9429536967E+00  0.1000000000E+01  0.1429536967E+00  0.2106473745E+01 -0.3300981585E-16 -0.7521085619E+00  0.6397685534E+15  0.2096261900E+01 -0.3300193453E-16 -0.7581801552E+00
  0.8469889352E+00  0.1000000000E+01  0.1429536967E+00  0.1797476686E+01 -0.4901239247E-16 -0.4040769329E+00  0.6397685534E+15  0.1787034439E+01 -0.4877155848E-16 -0.4050050325E+00
  0.8000000000E+00  0.1000000000E+01  0.1429536967E+00  0.1070991217E+01 -0.5476519326E-16 -0.3853989558E+00  0.6397685534E+15  0.1065042831E+01 -0.5497498018E-16 -0.3835779918E+00
  0.1200000000E+01  0.1000000000E+01  0.2570463033E+00  0.5655249617E+01 -0.5506862594E-17 -0.1783944289E+01  0.6397685534E+15  0.5650422010E+01 -0.5448141021E-17 -0.1783199285E+01
  0.1153011065E+01  0.1000000000E+01  0.2570463033E+00  0.5109437596E+01 -0.3849239136E-16 -0.2038029314E+01  0.6397685534E+15  0.5101852595E+01 -0.3761471212E-16 -0.2038981656E+01
  0.1057046303E+01  0.1000000000E+01  0.2570463033E+00  0.4242004895E+01 -0.2988518792E-16 -0.1651395152E+01  0.6397685534E+15  0.4229270651E+01 -0.2991583401E-16 -0.1650863059E+01
  0.9429536967E+00  0.1000000000E+01  0.2570463033E+00  0.3231713598E+01 -0.2895919864E-16 -0.1698987130E+01  0.6397685534E+15  0.3215865691E+01 -0.2809233944E-16 -0.1691553588E+01
  0.8469889352E+00  0.1000000000E+01  0.2570463033E+00  0.2645646027E+01 -0.1278588114E-16 -0.1060633186E+01  0.6397685534E+15  0.2631744372E+01 -0.1311427507E-16 -0.1050019716E+01
  0.8000000000E+00  0.1000000000E+01  0.2570463033E+00  0.2222493018E+01 -0.1159059465E-16 -0.9833312826E+00  0.6397685534E+15  0.2211652925E+01 -0.1159635946E-16 -0.9718598570E+00
  0.1200000000E+01  0.1000000000E+01  0.3530110648E+00  0.6027827316E+01  0.3355347599E-16 -0.2953973263E+01  0.6397685534E+15  0.6024644407E+01  0.3357907151E-16 -0.2948489141E+01
  0.1153011065E+01  0.1000000000E+01  0.3530110648E+00  0.5291154991E+01  0.1427666599E-16 -0.2890297406E+01  0.6397685534E+15  0.5285856402E+01  0.1436565561E-16 -0.2885096048E+01
  0.1057046303E+01  0.1000000000E+01  0.3530110648E+00  0.4532797269E+01 -0.5926182445E-17 -0.2532408250E+01  0.6397685534E+15  0.4515407468E+01 -0.5987025516E-17 -0.2526450670E+01
  0.9429536967E+00  0.1000000000E+01  0.3530110648E+00  0.3538369542E+01 -0.1295485483E-16 -0.2334815536E+01  0.6397685534E+15  0.3515389326E+01 -0.1230835782E-16 -0.2319347324E+01
  0.8469889352E+00  0.1000000000E+01  0.3530110648E+00  0.3016004366E+01  0.6735105409E-18 -0.1723079111E+01  0.6397685534E+15  0.3000935039E+01  0.4587270620E-19 -0.1701773685E+01
  0.8000000000E+00  0.1000000000E+01  0.3530110648E+00  0.2510063224E+01  0.3634524537E-17 -0.1528919564E+01  0.6397685534E+15  0.2499227408E+01  0.3641108477E-17 -0.1507070151E+01
  0.1200000000E+01  0.1000000000E+01  0.4000000000E+00  0.5776808333E+01  0.3909050689E-16 -0.3272446921E+01  0.6397685534E+15  0.5771065630E+01  0.3909684352E-16 -0.3272509292E+01
  0.1153011065E+01  0.1000000000E+01  0.4000000000E+00  0.5402460745E+01  0.3076285124E-16 -0.3398166859E+01  0.6397685534E+15  0.5397285154E+01  0.3074187306E-16 -0.3397976254E+01
  0.1057046303E+01  0.1000000000E+01  0.4000000000E+00  0.4507379065E+01  0.5456131846E-17 -0.2920649639E+01  0.6397685534E+15  0.4488128884E+01  0.5353167160E-17 -0.2918899131E+01
  0.9429536967E+00  0.1000000000E+01  0.4000000000E+00  0.3635208346E+01 -0.1189851484E-16 -0.2698311547E+01  0.6397685534E+15  0.3607749118E+01 -0.1126717464E-16 -0.2688895288E+01
  0.8469889352E+00  0.1000000000E+01  0.4000000000E+00  0.2995670478E+01 -0.6854661985E-17 -0.2007155512E+01  0.6397685534E+15  0.2979060347E+01 -0.7024460855E-17 -0.1991574191E+01
  0.8000000000E+00  0.1000000000E+01  0.4000000000E+00  0.2676317199E+01 -0.2274119857E-17 -0.1852033829E+01  0.6397685534E+15  0.2663594702E+01 -0.2261457555E-17 -0.1833675916E+01
ZONE I=6, J=6, K=1, F=POINT
  0.1600000000E+01  0.1000000000E+01  0.0000000000E+00  0.1304083647E+00 -0.9294661079E-18 -0.7160346128E-01  0.6397685534E+15  0.1270125343E+00 -0.1045941975E-17 -0.7110078283E-01
  0.1553011065E+01  0.1000000000E+01  0.0000000000E+00  0.1023079280E-01 -0.1310169264E-17  0.4524468148E-01  0.6397685534E+15  0.7298871982E-02 -0.1193780032E-17  0.4514458224E-01
  0.1457046303E+01  0.1000000000E+01  0.0000000000E+00 -0.7644150006E-02 -0.8544334155E-19 -0.3291017592E-02  0.6397685534E+15 -0.1034000843E-01 -0.3918715240E-19 -0.3194693323E-02
  0.1342953697E+01  0.1000000000E+01  0.0000000000E+00  0.4713281331E-02  0.3715500757E-18  0.2967185661E-01  0.6397685534E+15  0.2447384630E-02  0.2455114080E-18  0.2959033050E-01
  0.1246988935E+01  0.1000000000E+01  0.0000000000E+00 -0.8279453125E-02  0.1195718007E-18 -0.8272025914E-02  0.6397685534E+15 -0.1025314639E-01  0.1132192316E-18 -0.8071745594E-02
  0.1200000000E+01  0.1000000000E+01  0.0000000000E+00  0.5734798348E-01  0.6164502374E-19  0.3693567305E-01  0.6397685534E+15  0.5550734241E-01  0.6170544627E-19  0.3757099583E-01
  0.1600000000E+01  0.1000000000E+01  0.4698893521E-01  0.3001957905E+01 -0.8761616575E-16  0.2288640562E+00  0.6397685534E+15  0.2993209596E+01 -0.8742487304E-16  0.2311004719E+00
  0.1553011065E+01  0.1000000000E+01  0.4698893521E-01  0.3511170701E+01 -0.4329542613E-16 -0.2721403661E+00  0.6397685534E+15  0.3504714816E+01 -0.4349291003E-16 -0.2716118115E+00
  0.1457046303E+01  0.1000000000E+01  0.4698893521E-01  0.2562291869E+01 -0.4320019108E-17 -0.8297816054E-01  0.6397685534E+15  0.2557058957E+01 -0.4161792525E-17 -0.8713903439E-01
  0.1342953697E+01  0.1000000000E+01  0.4698893521E-01  0.2574385079E+01  0.2865677902E-16 -0.6012503232E-01  0.6397685534E+15  0.2568778461E+01  0.2860072683E-16 -0.6993633586E-01
  0.1246988935E+01  0.1000000000E+01  0.4698893521E-01  0.1997059388E+01 -0.6897917066E-17 -0.3574398842E-01  0.6397685534E+15  0.1990656496E+01 -0.7154455498E-17 -0.4726828048E-01
  0.1200000000E+01  0.1000000000E+01  0.4698893521E-01  0.2360428000E+01 -0.4632633739E-16 -0.2181884431E+00  0.6397685534E+15  0.2353326819E+01 -0.4604373461E-16 -0.2293669213E+00
  0.1600000000E+01  0.1000000000E+01  0.1429536967E+00  0.6407672291E+01 -0.2659247247E-15 -0.1752622733E+01  0.6397685534E+15  0.6387034087E+01 -0.2661409129E-15 -0.1745005199E+01
  0.1553011065E+01  0.1000000000E+01  0.1429536967E+00  0.8124996980E+01 -0.1412031402E-15 -0.9178260544E+00  0.6397685534E+15  0.8123830338E+01 -0.1413638856E-15 -0.9130781070E+00
  0.1457046303E+01  0.1000000000E+01  0.1429536967E+00  0.6110072583E+01  0.3186055440E-16 -0.9097170253E+00  0.6397685534E+15  0.6112831097E+01  0.3184693390E-16 -0.9134509405E+00
  0.1342953697E+01  0.1000000000E+01  0.1429536967E+00  0.6095478821E+01  0.1007003447E-15 -0.2096581199E+00  0.6397685534E+15  0.6094407221E+01  0.1006725738E-15 -0.2209901669E+00
  0.1246988935E+01  0.1000000000E+01  0.1429536967E+00  0.4727867975E+01  0.2596365181E-16 -0.7716058669E+00  0.6397685534E+15  0.4723851260E+01  0.2650004703E-16 -0.7855314388E+00
  0.1200000000E+01  0.1000000000E+01  0.1429536967E+00  0.5437929522E+01 -0.6226617073E-16 -0.6399466932E+00  0.6397685534E+15  0.5426365537E+01 -0.6201397950E-16 -0.6557593538E+00
  0.1600000000E+01  0.1000000000E+01  0.2570463033E+00  0.1140739793E+02  0.1057541695E-15 -0.3536945889E+01  0.6397685534E+15  0.1141691965E+02  0.1057126474E-15 -0.3527565580E+01
  0.1553011065E+01  0.1000000000E+01  0.2570463033E+00  0.1035478384E+02  0.1284345367E-15 -0.2456906877E+01  0.6397685534E+15  0.1036800331E+02  0.1284802494E-15 -0.2447225452E+01
  0.1457046303E+01  0.1000000000E+01  0.2570463033E+00  0.9023070558E+01  0.1859921829E-15 -0.2354210424E+01  0.6397685534E+15  0.9035441456E+01  0.1865999797E-15 -0.2354809027E+01
  0.1342953697E+01  0.1000000000E+01  0.2570463033E+00  0.7402401852E+01  0.1331430218E-15 -0.1250451779E+01  0.6397685534E+15  0.7405008269E+01  0.1332776646E-15 -0.1254439629E+01
  0.1246988935E+01  0.1000000000E+01  0.2570463033E+00  0.6139631007E+01  0.4355594463E-16 -0.2010443316E+01  0.6397685534E+15  0.6135532381E+01  0.4334278710E-16 -0.2010374388E+01
  0.1200000000E+01  0.1000000000E+01  0.2570463033E+00  0.5694894531E+01 -0.5794900180E-17 -0.1774295893E+01  0.6397685534E+15  0.5690267835E+01 -0.5724534024E-17 -0.1776359098E+01
  0.1600000000E+01  0.1000000000E+01  0.3530110648E+00  0.9944693490E+01  0.2102406866E-15 -0.4008370584E+01  0.6397685534E+15  0.9951256297E+01  0.2101158418E-15 -0.4000932384E+01
  0.1553011065E+01  0.1000000000E+01  0.3530110648E+00  0.1014608086E+02  0.2133150510E-15 -0.3944201452E+01  0.6397685534E+15  0.1016799769E+02  0.2134407296E-15 -0.3939951646E+01
  0.1457046303E+01  0.1000000000E+01  0.3530110648E+00  0.8957582422E+01  0.1998967948E-15 -0.3559096856E+01  0.6397685534E+15  0.8976995076E+01  0.2010159317E-15 -0.3560990911E+01
  0.1342953697E+01  0.1000000000E+01  0.3530110648E+00  0.7671789744E+01  0.1504605056E-15 -0.2801477363E+01  0.6397685534E+15  0.7670680403E+01  0.1504468548E-15 -0.2803108585E+01
  0.1246988935E+01  0.1000000000E+01  0.3530110648E+00  0.6234628014E+01  0.6431517875E-16 -0.3004719888E+01  0.6397685534E+15  0.6226232904E+01  0.6464382065E-16 -0.3000195548E+01
  0.1200000000E+01  0.1000000000E+01  0.3530110648E+00  0.6104757876E+01  0.3367627641E-16 -0.2954352378E+01  0.6397685534E+15  0.6098650805E+01  0.3366532400E-16 -0.2948566556E+01
  0.1600000000E+01  0.1000000000E+01  0.4000000000E+00  0.1014360408E+02  0.2123189475E-15 -0.4710233753E+01  0.6397685534E+15  0.1015537500E+02  0.2122191643E-15 -0.4721242528E+01
  0.1553011065E+01  0.1000000000E+01  0.4000000000E+00  0.9487265353E+01  0.2260676623E-15 -0.3970393721E+01  0.6397685534E+15  0.9512349165E+01  0.2257272834E-15 -0.3977126494E+01
  0.1457046303E+01  0.1000000000E+01  0.4000000000E+00  0.8873240544E+01  0.1935299391E-15 -0.4114782321E+01  0.6397685534E+15  0.8892273913E+01  0.1933887250E-15 -0.4117526596E+01
  0.1342953697E+01  0.1000000000E+01  0.4000000000E+00  0.7440646874E+01  0.1583025876E-15 -0.3223991374E+01  0.6397685534E+15  0.7439570139E+01  0.1581028600E-15 -0.3226763201E+01
  0.1246988935E+01  0.1000000000E+01  0.4000000000E+00  0.6371274407E+01  0.6467743542E-16 -0.3582947655E+01  0.6397685534E+15  0.6360095626E+01  0.6494367237E-16 -0.3583776884E+01
  0.1200000000E+01  0.1000000000E+01  0.4000000000E+00  0.5750371438E+01  0.3935827662E-16 -0.3260242725E+01  0.6397685534E+15  0.5746744488E+01  0.3934656636E-16 -0.3263102922E+01
ZONE I=6, J=6, K=1, F=POINT
  0.2000000000E+01  0.1000000000E+01  0.0000000000E+00  0.2402176302E+01  0.7367093144E-19  0.2123401861E+02  0.6397685534E+15  0.2429669989E+01  0.9372058305E-19  0.2215487568E+02
  0.1953011065E+01  0.1000000000E+01  0.0000000000E+00  0.1292620149E+01 -0.3733683368E-16 -0.1373743148E+00  0.6397685534E+15  0.1293562915E+01 -0.3601832598E-16 -0.1508527348E+00
  0.1857046303E+01  0.1000000000E+01  0.0000000000E+00 -0.3059179077E+00 -0.1875843192E-16  0.1518575445E+00  0.6397685534E+15 -0.3103774975E+00 -0.1947109686E-16  0.1504406183E+00
  0.1742953697E+01  0.1000000000E+01  0.0000000000E+00  0.1348164640E+00  0.2193540261E-18 -0.3725337921E-01  0.6397685534E+15  0.1319813488E+00  0.9715849643E-19 -0.3696869892E-01
  0.1646988935E+01  0.1000000000E+01  0.0000000000E+00 -0.1268847890E+00  0.3162615010E-18  0.6052707181E-01  0.6397685534E+15 -0.1300849792E+00  0.2924948412E-18  0.5974434827E-01
  0.1600000000E+01  0.1000000000E+01  0.0000000000E+00  0.8843693938E-01 -0.1009023203E-17 -0.8368481891E-01  0.6397685534E+15  0.8511857784E-01 -0.1126627071E-17 -0.8182170006E-01
  0.2000000000E+01  0.1000000000E+01  0.4698893521E-01 -0.1237466379E-01  0.7502734034E-18  0.4848342559E+02  0.6397685534E+15 -0.5559075036E-01  0.6877763815E-18  0.4865522280E+02
  0.1953011065E+01  0.1000000000E+01  0.4698893521E-01  0.1096095582E+02  0.1357217589E-15  0.1466137256E+01  0.6397685534E+15  0.1094247848E+02  0.1344623502E-15  0.1476028461E+01
  0.1857046303E+01  0.1000000000E+01  0.4698893521E-01  0.1162121601E+02  0.2877201814E-15 -0.1894545661E+01  0.6397685534E+15  0.1161430994E+02  0.2873705427E-15 -0.1898977705E+01
  0.1742953697E+01  0.1000000000E+01  0.4698893521E-01  0.5729078657E+01 -0.4174326403E-16 -0.6475741181E+00  0.6397685534E+15  0.5723507357E+01 -0.4136519910E-16 -0.6523947877E+00
  0.1646988935E+01  0.1000000000E+01  0.4698893521E-01  0.4457379069E+01 -0.1217862316E-15 -0.6293410895E+00  0.6397685534E+15  0.4446257389E+01 -0.1214006417E-15 -0.6263187596E+00
  0.1600000000E+01  0.1000000000E+01  0.4698893521E-01  0.2837221497E+01 -0.8475546809E-16  0.2147098576E+00  0.6397685534E+15  0.2838076996E+01 -0.8439155672E-16  0.2116456108E+00
  0.2000000000E+01  0.1000000000E+01  0.1429536967E+00 -0.2820140732E+00  0.2720687583E-17  0.5050367145E+02  0.6397685534E+15 -0.2576597921E+00  0.2751177687E-17  0.5043689342E+02
  0.1953011065E+01  0.1000000000E+01  0.1429536967E+00  0.2788148227E+01 -0.5111464513E-15  0.1636744196E+02  0.6397685534E+15  0.2768316745E+01 -0.5115839085E-15  0.1639527632E+02
  0.1857046303E+01  0.1000000000E+01  0.1429536967E+00  0.1269532483E+02 -0.2630007374E-15 -0.3648037682E+01  0.6397685534E+15  0.1268007488E+02 -0.2623030993E-15 -0.3646207492E+01
  0.1742953697E+01  0.1000000000E+01  0.1429536967E+00  0.9972268646E+01 -0.2968422608E-16 -0.4057047520E+01  0.6397685534E+15  0.9958508957E+01 -0.3153163342E-16 -0.4053348254E+01
  0.1646988935E+01  0.1000000000E+01  0.1429536967E+00  0.9363360135E+01 -0.1601144627E-15 -0.2017042976E+01  0.6397685534E+15  0.9351694858E+01 -0.1599736792E-15 -0.2006625007E+01
  0.1600000000E+01  0.1000000000E+01  0.1429536967E+00  0.6035660226E+01 -0.2825083173E-15 -0.1752838369E+01  0.6397685534E+15  0.6055585431E+01 -0.2830819109E-15 -0.1749662174E+01
  0.2000000000E+01  0.1000000000E+01  0.2570463033E+00  0.1897411303E-01  0.1127635986E-17  0.4987257862E+02  0.6397685534E+15  0.1782100690E-01  0.1098067657E-17  0.4987419020E+02