TITLE = "Generated from ../MESH/Convergence_0000000000.hmesh and Convergence_0000009500.hsol"
VARIABLES = "x","y","z","veloT_x","veloT_y","veloT_z","slr_4","velo_x","velo_y","velo_z"
ZONE I=6, J=6, K=1, F=POINT
  0.4000000000E+00  0.1000000000E+01  0.0000000000E+00 -0.1834779668E+00 -0.1000711810E-18  0.1563106139E-01  0.5595395970E+16  0.7575190075E-01 -0.2109291993E-19  0.1536193734E-01
  0.3530110648E+00  0.1000000000E+01  0.0000000000E+00 -0.1635607777E+00 -0.1360216058E-19  0.4582934150E-02  0.5595395970E+16  0.1072089414E+00 -0.5963776211E-19  0.2340984515E-02
  0.2570463033E+00  0.1000000000E+01  0.0000000000E+00 -0.1226186051E+00 -0.6672702754E-20  0.8789943875E-02  0.5595395970E+16  0.9641489560E-01 -0.3055861942E-19  0.2816122152E-02
  0.1429536967E+00  0.1000000000E+01  0.0000000000E+00 -0.1197936741E+00  0.4767877586E-20 -0.4854961260E-02  0.5595395970E+16  0.8733983012E-01 -0.5300118053E-20 -0.3984403474E-02
  0.4698893521E-01  0.1000000000E+01  0.0000000000E+00 -0.9717031954E-01 -0.2638298555E-19  0.2266974193E-01  0.5595395970E+16  0.6241013517E-01 -0.1583614102E-19  0.3161234454E-02
  0.0000000000E+00  0.1000000000E+01  0.0000000000E+00 -0.2443711069E-01  0.2951658447E-21  0.1756931848E-01  0.5595395970E+16 -0.7236058033E-02  0.1427678720E-21 -0.6797727002E-04
  0.4000000000E+00  0.1000000000E+01  0.4698893521E-01 -0.4642966419E+00  0.7509878077E-17 -0.6057784633E-01  0.5595395970E+16  0.8113907217E-01  0.4387773981E-17  0.8473401624E+00
  0.3530110648E+00  0.1000000000E+01  0.4698893521E-01 -0.5683038010E+00  0.1036370559E-16  0.9266765019E-01  0.5595395970E+16 -0.1371218415E-02  0.3442877451E-17  0.8293215724E+00
  0.2570463033E+00  0.1000000000E+01  0.4698893521E-01 -0.4501162489E+00  0.2404617182E-17  0.1848888828E+00  0.5595395970E+16  0.2087838455E-01  0.2465228055E-17  0.6428770596E+00
  0.1429536967E+00  0.1000000000E+01  0.4698893521E-01 -0.5414902760E+00 -0.8144862218E-18  0.3580258508E+00  0.5595395970E+16 -0.7769621362E-01  0.5268454528E-18  0.4630295917E+00
  0.4698893521E-01  0.1000000000E+01  0.4698893521E-01 -0.4054469656E+00 -0.4713016859E-18  0.4148970619E+00  0.5595395970E+16 -0.6908737392E-01 -0.1134772933E-18  0.2117822655E+00
  0.0000000000E+00  0.1000000000E+01  0.4698893521E-01 -0.3687251541E-01  0.7057231924E-20  0.1027633383E+00  0.5595395970E+16 -0.1903513534E-01  0.1835225242E-20 -0.5323530192E-01
  0.4000000000E+00  0.1000000000E+01  0.1429536967E+00 -0.3957182230E+00 -0.4003898163E-17 -0.3306873207E+00  0.5595395970E+16  0.4762003504E+00  0.8302627129E-17  0.9120980129E+00
  0.3530110648E+00  0.1000000000E+01  0.1429536967E+00 -0.4862945334E+00  0.8029660430E-17 -0.3071316131E+00  0.5595395970E+16  0.4405784297E+00 -0.9668503258E-19  0.8033648537E+00
  0.2570463033E+00  0.1000000000E+01  0.1429536967E+00 -0.5105682415E+00  0.2994122131E-17 -0.5755614758E-01  0.5595395970E+16  0.3211971918E+00  0.3692554527E-17  0.6865352750E+00
  0.1429536967E+00  0.1000000000E+01  0.1429536967E+00 -0.6863348290E+00  0.1488893388E-17  0.2388419924E+00  0.5595395970E+16  0.2207869906E+00  0.1635424563E-17  0.4713024048E+00
  0.4698893521E-01  0.1000000000E+01  0.1429536967E+00 -0.3809258481E+00 -0.1731322198E-17  0.4416383879E+00  0.5595395970E+16  0.2726655286E+00 -0.7159178225E-18  0.2066076451E+00
  0.0000000000E+00  0.1000000000E+01  0.1429536967E+00 -0.1503413125E-01  0.3153087817E-19  0.9715689470E-01  0.5595395970E+16 -0.1967260510E-01  0.7177793118E-20 -0.8416796578E-01
  0.4000000000E+00  0.1000000000E+01  0.2570463033E+00 -0.5314507624E+00  0.3757115955E-17 -0.8073836816E+00  0.5595395970E+16  0.5607149705E+00  0.4668809186E-17  0.1447622651E+00
  0.3530110648E+00  0.1000000000E+01  0.2570463033E+00 -0.4164010162E+00  0.3411691762E-17 -0.5591931848E+00  0.5595395970E+16  0.8091674788E+00  0.1527506963E-16  0.2626201302E+00
  0.2570463033E+00  0.1000000000E+01  0.2570463033E+00 -0.5799969336E+00  0.2704375653E-17 -0.2243967231E+00  0.5595395970E+16  0.6447181308E+00  0.2580548934E-17  0.3788531230E+00
  0.1429536967E+00  0.1000000000E+01  0.2570463033E+00 -0.7876263575E+00  0.1895270167E-17 -0.1827808364E-01  0.5595395970E+16  0.6701270819E+00  0.1758898747E-17  0.1417567575E+00
  0.4698893521E-01  0.1000000000E+01  0.2570463033E+00 -0.3814683796E+00  0.5178860467E-17  0.2590778539E+00  0.5595395970E+16  0.6730002782E+00  0.1884937342E-17  0.7859200677E-02
  0.0000000000E+00  0.1000000000E+01  0.2570463033E+00 -0.1095328757E-01 -0.3794232465E-19  0.4206147069E-01  0.5595395970E+16 -0.1166875983E-01 -0.1178707300E-20 -0.1011504100E+00
  0.4000000000E+00  0.1000000000E+01  0.3530110648E+00 -0.1438342836E+01  0.4604154078E-17 -0.7978806721E+00  0.5595395970E+16  0.2582947994E+00  0.3112904233E-17  0.3454821094E+00
  0.3530110648E+00  0.1000000000E+01  0.3530110648E+00 -0.6912967818E+00  0.3780814129E-17 -0.5122823195E+00  0.5595395970E+16  0.8116421894E+00  0.3762722496E-17  0.3632324947E+00
  0.2570463033E+00  0.1000000000E+01  0.3530110648E+00 -0.5606976361E+00 -0.4184402964E-17 -0.2641354223E+00  0.5595395970E+16  0.9349342095E+00 -0.1258282887E-16  0.3228484288E+00
  0.1429536967E+00  0.1000000000E+01  0.3530110648E+00 -0.8031423770E+00 -0.1524445183E-17 -0.1043226830E+00  0.5595395970E+16  0.1123497426E+01 -0.2080594540E-17 -0.2162440613E-01
  0.4698893521E-01  0.1000000000E+01  0.3530110648E+00 -0.3083403429E+00 -0.2221045804E-17  0.1731043312E+00  0.5595395970E+16  0.1008599668E+01  0.7290592994E-18 -0.1530782977E+00
  0.0000000000E+00  0.1000000000E+01  0.3530110648E+00 -0.8921169070E-02  0.1805451912E-19  0.2556606075E-02  0.5595395970E+16 -0.1365572757E-01  0.3048357745E-19 -0.1349738443E+00
  0.4000000000E+00  0.1000000000E+01  0.4000000000E+00 -0.1360865933E+01  0.1627915602E-17 -0.6398355049E+00  0.5595395970E+16  0.6848334397E+00  0.1629669847E-17  0.7706542641E+00
  0.3530110648E+00  0.1000000000E+01  0.4000000000E+00 -0.5537784727E+00  0.4696102387E-17 -0.6763955610E+00  0.5595395970E+16  0.1159109071E+01  0.1190841957E-17  0.4911353810E+00
  0.2570463033E+00  0.1000000000E+01  0.4000000000E+00 -0.5042538443E+00 -0.9195403067E-19 -0.5735337543E+00  0.5595395970E+16  0.1175188330E+01  0.4262937140E-17  0.1336304907E+00
  0.1429536967E+00  0.1000000000E+01  0.4000000000E+00 -0.7676607593E+00  0.4060428048E-17 -0.3286489023E+00  0.5595395970E+16  0.1398334928E+01  0.4789982783E-17 -0.1766898031E+00
  0.4698893521E-01  0.1000000000E+01  0.4000000000E+00 -0.2636335934E+00 -0.2750524093E-18 -0.2137531414E-01  0.5595395970E+16  0.1184904892E+01  0.7645935372E-18 -0.2861225935E+00
  0.0000000000E+00  0.1000000000E+01  0.4000000000E+00  0.3057581744E-02  0.3618736678E-19 -0.4115725759E-01  0.5595395970E+16 -0.3918850237E-02  0.7332907912E-20 -0.1365379365E+00
ZONE I=6, J=6, K=1, F=POINT
  0.8000000000E+00  0.1000000000E+01  0.0000000000E+00 -0.3482021472E+00 -0.3256982494E-18 -0.4164719909E-02  0.5595395970E+16  0.1156650848E+00 -0.2910567819E-18 -0.8469753945E-02
  0.7530110648E+00  0.1000000000E+01  0.0000000000E+00 -0.3423573827E+00 -0.8084341773E-17  0.1689097515E-01  0.5595395970E+16  0.1111738509E+00  0.2053919288E-17  0.1220603850E-01
  0.6570463033E+00  0.1000000000E+01  0.0000000000E+00 -0.2953386647E+00 -0.3745084617E-17  0.1514555092E-01  0.5595395970E+16  0.1182787882E+00  0.1689127388E-17  0.6463715142E-02
  0.5429536967E+00  0.1000000000E+01  0.0000000000E+00 -0.2393578935E+00 -0.6223254271E-17  0.2361150101E-01  0.5595395970E+16  0.1063175697E+00  0.2855772839E-17  0.1212737633E-01
  0.4469889352E+00  0.1000000000E+01  0.0000000000E+00 -0.1990466719E+00 -0.6111646339E-17  0.1594181404E-01  0.5595395970E+16  0.8848389655E-01  0.2733076846E-17  0.7693836362E-02
  0.4000000000E+00  0.1000000000E+01  0.0000000000E+00 -0.1568085366E+00 -0.9321663071E-19  0.1521833608E-01  0.5595395970E+16  0.1064001676E+00 -0.2003610024E-19  0.1488400406E-01
  0.8000000000E+00  0.1000000000E+01  0.4698893521E-01 -0.7405192468E+00 -0.8614793966E-17 -0.4671005369E+00  0.5595395970E+16 -0.1086215853E+00 -0.1542869933E-16  0.8662408020E+00
  0.7530110648E+00  0.1000000000E+01  0.4698893521E-01 -0.4888030076E+00  0.4484098085E-16 -0.5185397409E+00  0.5595395970E+16  0.1537597498E+00  0.6209324479E-17  0.8332740584E+00
  0.6570463033E+00  0.1000000000E+01  0.4698893521E-01 -0.5934187919E+00 -0.1613293588E-16 -0.5812032857E+00  0.5595395970E+16  0.2210736691E-01 -0.6442290662E-17  0.8180648804E+00
  0.5429536967E+00  0.1000000000E+01  0.4698893521E-01 -0.5377781834E+00 -0.1111798842E-16 -0.5579172317E+00  0.5595395970E+16  0.4694459967E-01 -0.3177376533E-18  0.8025333687E+00
  0.4469889352E+00  0.1000000000E+01  0.4698893521E-01 -0.6324262513E+00  0.9873345905E-17 -0.2127045053E+00  0.5595395970E+16 -0.6199489242E-01  0.5433792935E-17  0.8820688393E+00
  0.4000000000E+00  0.1000000000E+01  0.4698893521E-01 -0.4233248442E+00  0.7353223135E-17 -0.6141988738E-01  0.5595395970E+16  0.1241477572E+00  0.4187723521E-17  0.8465112835E+00
  0.8000000000E+00  0.1000000000E+01  0.1429536967E+00  0.2395351452E+00 -0.8930375040E-16 -0.1375890411E+01  0.5595395970E+16  0.7900592667E+00 -0.7299307917E-16  0.2614847984E+00
  0.7530110648E+00  0.1000000000E+01  0.1429536967E+00  0.5912448330E+00 -0.1849009143E-16 -0.1158535294E+01  0.5595395970E+16  0.1204611815E+01 -0.3372157213E-16  0.5001171060E+00
  0.6570463033E+00  0.1000000000E+01  0.1429536967E+00  0.1414765213E+00  0.4316426848E-16 -0.9142107012E+00  0.5595395970E+16  0.8181480180E+00  0.1647965332E-16  0.6398026445E+00
  0.5429536967E+00  0.1000000000E+01  0.1429536967E+00 -0.7691100710E-01 -0.2189975091E-16 -0.4808991287E+00  0.5595395970E+16  0.6512051206E+00 -0.1057901304E-18  0.8726831397E+00
  0.4469889352E+00  0.1000000000E+01  0.1429536967E+00 -0.4871202635E+00  0.1906500805E-16 -0.4115445008E+00  0.5595395970E+16  0.3243455297E+00  0.6914847241E-17  0.8832390062E+00
  0.4000000000E+00  0.1000000000E+01  0.1429536967E+00 -0.3439371013E+00 -0.3553589725E-17 -0.3305599030E+00  0.5595395970E+16  0.5305376093E+00  0.8847839584E-17  0.9124127303E+00
  0.8000000000E+00  0.1000000000E+01  0.2570463033E+00  0.1477202779E+01 -0.1530919956E-16 -0.2212070362E+01  0.5595395970E+16  0.1993626258E+01 -0.1507487513E-16 -0.5928840627E+00
  0.7530110648E+00  0.1000000000E+01  0.2570463033E+00  0.1314546787E+01 -0.1532023042E-16 -0.1923327080E+01  0.5595395970E+16  0.2004965396E+01  0.3651042417E-17 -0.3485219853E+00
  0.6570463033E+00  0.1000000000E+01  0.2570463033E+00  0.8721423371E+00  0.3152902449E-16 -0.2041532194E+01  0.5595395970E+16  0.1738746225E+01  0.7200100319E-17 -0.5244697217E+00
  0.5429536967E+00  0.1000000000E+01  0.2570463033E+00  0.1530198948E+00 -0.1550113564E-16 -0.1963540830E+01  0.5595395970E+16  0.1012441520E+01 -0.1312067800E-17 -0.4912075384E+00
  0.4469889352E+00  0.1000000000E+01  0.2570463033E+00 -0.5456329318E+00 -0.2725807145E-17 -0.1340068778E+01  0.5595395970E+16  0.3812357669E+00  0.1131188155E-16 -0.1860825286E+00
  0.4000000000E+00  0.1000000000E+01  0.2570463033E+00 -0.4966797156E+00  0.3594927780E-17 -0.8070361638E+00  0.5595395970E+16  0.5983289751E+00  0.4632993507E-17  0.1453359771E+00
  0.8000000000E+00  0.1000000000E+01  0.3530110648E+00  0.1854937913E+01  0.9667477456E-18 -0.2541720831E+01  0.5595395970E+16  0.2363807140E+01 -0.1007810971E-17 -0.2895698370E+00
  0.7530110648E+00  0.1000000000E+01  0.3530110648E+00  0.1854751279E+01 -0.7409217152E-16 -0.2237651724E+01  0.5595395970E+16  0.2644019760E+01 -0.2851134295E-16 -0.2959682119E-02
  0.6570463033E+00  0.1000000000E+01  0.3530110648E+00  0.2033312284E+01  0.2688413914E-16 -0.2510459344E+01  0.5595395970E+16  0.2533528613E+01 -0.2802282746E-16  0.1316975926E+00
  0.5429536967E+00  0.1000000000E+01  0.3530110648E+00  0.2344284652E+00  0.1136899086E-15 -0.2911530305E+01  0.5595395970E+16  0.1362204645E+01  0.1634279015E-16  0.2929181878E+00
  0.4469889352E+00  0.1000000000E+01  0.3530110648E+00 -0.1913812847E+01 -0.3612297126E-19 -0.1612326195E+01  0.5595395970E+16  0.1334378533E+00 -0.1138926132E-16  0.2723648859E+00
  0.4000000000E+00  0.1000000000E+01  0.3530110648E+00 -0.1393559373E+01  0.4900921144E-17 -0.8005567746E+00  0.5595395970E+16  0.3006824113E+00  0.3430109632E-17  0.3448103868E+00
  0.8000000000E+00  0.1000000000E+01  0.4000000000E+00  0.1982590399E+01 -0.1312696624E-16 -0.2419093038E+01  0.5595395970E+16  0.2313273324E+01 -0.1289194739E-16 -0.1813390910E+00
  0.7530110648E+00  0.1000000000E+01  0.4000000000E+00  0.1700172333E+01 -0.1754310712E-16 -0.1948012827E+01  0.5595395970E+16  0.2478185769E+01 -0.2149274401E-16  0.3946972085E+00
  0.6570463033E+00  0.1000000000E+01  0.4000000000E+00  0.2458625201E+01 -0.5670173231E-17 -0.1354643316E+01  0.5595395970E+16  0.2438023843E+01  0.1126267909E-16  0.1693484157E+01
  0.5429536967E+00  0.1000000000E+01  0.4000000000E+00  0.2309252869E+00 -0.1946437662E-16 -0.1328344219E+01  0.5595395970E+16  0.1558415077E+01  0.4796895864E-16  0.2687481412E+01
  0.4469889352E+00  0.1000000000E+01  0.4000000000E+00 -0.2415776006E+01 -0.8462832963E-16 -0.8459091531E+00  0.5595395970E+16  0.7139642488E+00 -0.2742485564E-16  0.1429248793E+01
  0.4000000000E+00  0.1000000000E+01  0.4000000000E+00 -0.1336833963E+01  0.1973075585E-17 -0.6428612509E+00  0.5595395970E+16  0.7061719811E+00  0.1987815700E-17  0.7714757422E+00
ZONE I=6, J=6, K=1, F=POINT
  0.1200000000E+01  0.1000000000E+01  0.0000000000E+00 -0.5656575471E+00 -0.1163180677E-18  0.3923316053E-01  0.5595395970E+16 -0.7260665291E-01 -0.1055705510E-18  0.4218886270E-01
  0.1153011065E+01  0.1000000000E+01  0.0000000000E+00 -0.5277419510E+00 -0.2481477006E-16 -0.6405370109E-02  0.5595395970E+16 -0.2679485543E-01 -0.2593755296E-17 -0.4768283601E-02
  0.1057046303E+01  0.1000000000E+01  0.0000000000E+00 -0.4871571837E+00 -0.1261346334E-16  0.1261689329E-01  0.5595395970E+16  0.1654242258E-01  0.4349179731E-18  0.1240928835E-01
  0.9429536967E+00  0.1000000000E+01  0.0000000000E+00 -0.4403175619E+00 -0.4012636518E-18 -0.1088498889E-02  0.5595395970E+16  0.5263637429E-01 -0.3702663296E-18 -0.2896747262E-02
  0.8469889352E+00  0.1000000000E+01  0.0000000000E+00 -0.3881098255E+00 -0.7563202950E-19  0.1455158355E-01  0.5595395970E+16  0.8770701622E-01 -0.1258193882E-18  0.1112970243E-01
  0.8000000000E+00  0.1000000000E+01  0.0000000000E+00 -0.3956850215E+00 -0.3725535039E-18 -0.3681072385E-02  0.5595395970E+16  0.6862230198E-01 -0.3118154998E-18 -0.8032359988E-02
  0.1200000000E+01  0.1000000000E+01  0.4698893521E-01  0.9908511546E+00  0.2180583303E-16 -0.1212887967E+01  0.5595395970E+16  0.1381785496E+01  0.3145184901E-17 -0.5319564780E+00
  0.1153011065E+01  0.1000000000E+01  0.4698893521E-01  0.2852307409E+00  0.2053947098E-16 -0.1000883332E+01  0.5595395970E+16  0.6787323401E+00  0.6733078100E-17 -0.2384892852E+00
  0.1057046303E+01  0.1000000000E+01  0.4698893521E-01  0.1697303354E+00 -0.3095645657E-16 -0.9118968939E+00  0.5595395970E+16  0.6436181107E+00 -0.2366594660E-16  0.6703193508E-01
  0.9429536967E+00  0.1000000000E+01  0.4698893521E-01 -0.4042773804E+00  0.2268083081E-16 -0.7599150032E+00  0.5595395970E+16  0.1512943234E+00  0.7958123852E-17  0.4000683979E+00
  0.8469889352E+00  0.1000000000E+01  0.4698893521E-01 -0.4607386321E+00  0.3165354447E-16 -0.6097556019E+00  0.5595395970E+16  0.1340767935E+00  0.3953499493E-17  0.6794725433E+00
  0.8000000000E+00  0.1000000000E+01  0.4698893521E-01 -0.8009489157E+00 -0.7580057362E-17 -0.4647730922E+00  0.5595395970E+16 -0.1688136864E+00 -0.1449059201E-16  0.8682955413E+00
  0.1200000000E+01  0.1000000000E+01  0.1429536967E+00  0.4289171716E+01 -0.2193822584E-16 -0.2127972841E+01  0.5595395970E+16  0.4535180462E+01 -0.2871475080E-16 -0.1261043208E+01
  0.1153011065E+01  0.1000000000E+01  0.1429536967E+00  0.2788735177E+01 -0.1530271511E-15 -0.2296197132E+01  0.5595395970E+16  0.2944791670E+01 -0.1495253809E-15 -0.1335239558E+01
  0.1057046303E+01  0.1000000000E+01  0.1429536967E+00  0.2421898923E+01 -0.3687978664E-16 -0.1982603505E+01  0.5595395970E+16  0.2640503275E+01 -0.3685158060E-16 -0.7795233424E+00
  0.9429536967E+00  0.1000000000E+01  0.1429536967E+00  0.1102256479E+01 -0.3402097939E-16 -0.1979354340E+01  0.5595395970E+16  0.1484599739E+01 -0.3307398243E-16 -0.4962755416E+00
  0.8469889352E+00  0.1000000000E+01  0.1429536967E+00  0.7744516215E+00 -0.1049185022E-16 -0.1468569203E+01  0.5595395970E+16  0.1259539819E+01 -0.2959791966E-16  0.1345334361E+00
  0.8000000000E+00  0.1000000000E+01  0.1429536967E+00  0.1553833254E+00 -0.9220853356E-16 -0.1376895949E+01  0.5595395970E+16  0.7073926104E+00 -0.7586675525E-16  0.2599795321E+00
  0.1200000000E+01  0.1000000000E+01  0.2570463033E+00  0.5049166554E+01 -0.3049335478E-16 -0.3175294272E+01  0.5595395970E+16  0.5065997825E+01 -0.2939754316E-16 -0.2292764384E+01
  0.1153011065E+01  0.1000000000E+01  0.2570463033E+00  0.4392886979E+01  0.1160395859E-15 -0.3444408767E+01  0.5595395970E+16  0.4327678255E+01  0.1353943682E-15 -0.2463514514E+01
  0.1057046303E+01  0.1000000000E+01  0.2570463033E+00  0.3491646490E+01 -0.4091613966E-16 -0.2974148524E+01  0.5595395970E+16  0.3450223808E+01 -0.4083371223E-16 -0.1804821211E+01
  0.9429536967E+00  0.1000000000E+01  0.2570463033E+00  0.2470950644E+01  0.5459138552E-16 -0.2860482908E+01  0.5595395970E+16  0.2633062464E+01  0.4500385823E-16 -0.1466915966E+01
  0.8469889352E+00  0.1000000000E+01  0.2570463033E+00  0.1831996574E+01 -0.7747882065E-16 -0.2286322955E+01  0.5595395970E+16  0.2226306271E+01 -0.4351065660E-16 -0.6998308357E+00
  0.8000000000E+00  0.1000000000E+01  0.2570463033E+00  0.1438060848E+01 -0.1468688167E-16 -0.2214300623E+01  0.5595395970E+16  0.1957960050E+01 -0.1413040805E-16 -0.5947972925E+00
  0.1200000000E+01  0.1000000000E+01  0.3530110648E+00  0.5699476377E+01 -0.1228075887E-17 -0.4391575198E+01  0.5595395970E+16  0.5527600474E+01 -0.4602929086E-18 -0.3290259099E+01
  0.1153011065E+01  0.1000000000E+01  0.3530110648E+00  0.4806910831E+01  0.8083058065E-17 -0.4341421694E+01  0.5595395970E+16  0.4499045888E+01  0.1263904332E-16 -0.3129009862E+01
  0.1057046303E+01  0.1000000000E+01  0.3530110648E+00  0.3783618869E+01 -0.9789125600E-17 -0.3880422358E+01  0.5595395970E+16  0.3563349100E+01 -0.3030708554E-16 -0.2433144494E+01
  0.9429536967E+00  0.1000000000E+01  0.3530110648E+00  0.2927355923E+01  0.3772028030E-16 -0.3404713100E+01  0.5595395970E+16  0.2834869481E+01  0.2570836391E-16 -0.1678064158E+01
  0.8469889352E+00  0.1000000000E+01  0.3530110648E+00  0.2523089070E+01 -0.4228619574E-16 -0.2754258071E+01  0.5595395970E+16  0.2654055694E+01 -0.5679060511E-16 -0.6501227940E+00
  0.8000000000E+00  0.1000000000E+01  0.3530110648E+00  0.1804024350E+01  0.1182733058E-17 -0.2542342988E+01  0.5595395970E+16  0.2311769301E+01 -0.3218605167E-18 -0.2899767929E+00
  0.1200000000E+01  0.1000000000E+01  0.4000000000E+00  0.5516446511E+01 -0.3258619660E-17 -0.4615791319E+01  0.5595395970E+16  0.5270092811E+01 -0.2510873587E-17 -0.3646248801E+01
  0.1153011065E+01  0.1000000000E+01  0.4000000000E+00  0.4968032495E+01 -0.2704715046E-16 -0.4724233936E+01  0.5595395970E+16  0.4558830372E+01 -0.4643484173E-16 -0.3699593987E+01
  0.1057046303E+01  0.1000000000E+01  0.4000000000E+00  0.3749520063E+01 -0.4580904676E-16 -0.4275727871E+01  0.5595395970E+16  0.3413177670E+01 -0.5225825074E-16 -0.3050287383E+01
  0.9429536967E+00  0.1000000000E+01  0.4000000000E+00  0.2985428281E+01  0.3300439094E-17 -0.3829915084E+01  0.5595395970E+16  0.2728186794E+01  0.1497603146E-16 -0.2210831559E+01
  0.8469889352E+00  0.1000000000E+01  0.4000000000E+00  0.2495201496E+01 -0.3432788213E-16 -0.2784526041E+01  0.5595395970E+16  0.2421462411E+01 -0.3815839310E-16 -0.7910951747E+00
  0.8000000000E+00  0.1000000000E+01  0.4000000000E+00  0.1974546427E+01 -0.1286833692E-16 -0.2424923833E+01  0.5595395970E+16  0.2305387394E+01 -0.1252634258E-16 -0.1852788162E+00
ZONE I=6, J=6, K=1, F=POINT
  0.1600000000E+01  0.1000000000E+01  0.0000000000E+00 -0.5283018065E+00 -0.1251958971E-17 -0.4484922559E-01  0.5595395970E+16 -0.1107813443E+00 -0.1690535094E-17 -0.4832864359E-01
  0.1553011065E+01  0.1000000000E+01  0.0000000000E+00 -0.6357952490E+00  0.3001953470E-16  0.4954915205E-01  0.5595395970E+16 -0.2147217344E+00  0.1020195585E-16  0.4982254794E-01
  0.1457046303E+01  0.1000000000E+01  0.0000000000E+00 -0.6173056424E+00  0.1403049545E-16 -0.1565364632E-03  0.5595395970E+16 -0.1776634571E+00  0.3468119047E-17  0.3333771141E-02
  0.1342953697E+01  0.1000000000E+01  0.0000000000E+00 -0.5668090352E+00 -0.3140230767E-16  0.3319653816E-01  0.5595395970E+16 -0.1044122606E+00 -0.5861061495E-17  0.3575917299E-01
  0.1246988935E+01  0.1000000000E+01  0.0000000000E+00 -0.5522004549E+00 -0.1917187466E-17 -0.5704166257E-02  0.5595395970E+16 -0.7294400686E-01  0.9475133764E-18 -0.2405662265E-02
  0.1200000000E+01  0.1000000000E+01  0.0000000000E+00 -0.4748029264E+00 -0.2597468719E-18  0.3921422124E-01  0.5595395970E+16  0.1698324362E-01 -0.1632381186E-18  0.4226070027E-01
  0.1600000000E+01  0.1000000000E+01  0.4698893521E-01  0.1509546972E+01 -0.5695141873E-16 -0.7652436939E+00  0.5595395970E+16  0.1527037364E+01 -0.5766801306E-16  0.4972487306E+00
  0.1553011065E+01  0.1000000000E+01  0.4698893521E-01  0.2178346285E+01 -0.8728724085E-16 -0.1304463558E+01  0.5595395970E+16  0.2262505988E+01 -0.8539924108E-16 -0.1444930255E+00
  0.1457046303E+01  0.1000000000E+01  0.4698893521E-01  0.1250862895E+01  0.3216888423E-16 -0.1280435666E+01  0.5595395970E+16  0.1418188323E+01  0.2801593374E-16 -0.3612063767E+00
  0.1342953697E+01  0.1000000000E+01  0.4698893521E-01  0.1282157366E+01  0.1178327455E-16 -0.1144050088E+01  0.5595395970E+16  0.1563277791E+01  0.1463646643E-16 -0.3566927417E+00
  0.1246988935E+01  0.1000000000E+01  0.4698893521E-01  0.7666931913E+00 -0.6975266890E-16 -0.1055117852E+01  0.5595395970E+16  0.1145706739E+01 -0.5337919512E-16 -0.3672789231E+00
  0.1200000000E+01  0.1000000000E+01  0.4698893521E-01  0.1091283434E+01  0.1795901889E-16 -0.1218900899E+01  0.5595395970E+16  0.1479825482E+01 -0.6935023299E-18 -0.5371132937E+00
  0.1600000000E+01  0.1000000000E+01  0.1429536967E+00  0.4920363294E+01 -0.3718189737E-15 -0.3494145709E+01  0.5595395970E+16  0.4868149313E+01 -0.3702442346E-15 -0.2721676744E+01
  0.1553011065E+01  0.1000000000E+01  0.1429536967E+00  0.7062901545E+01 -0.1024188521E-15 -0.2617247077E+01  0.5595395970E+16  0.7283612795E+01 -0.1165317553E-15 -0.1783812713E+01
  0.1457046303E+01  0.1000000000E+01  0.1429536967E+00  0.5039428189E+01 -0.7567873190E-16 -0.2513485601E+01  0.5595395970E+16  0.5339108702E+01 -0.5614913284E-16 -0.1683480113E+01
  0.1342953697E+01  0.1000000000E+01  0.1429536967E+00  0.5029868185E+01  0.2553310297E-16 -0.1727089473E+01  0.5595395970E+16  0.5374911284E+01  0.3877722057E-16 -0.9428088328E+00
  0.1246988935E+01  0.1000000000E+01  0.1429536967E+00  0.3887431694E+01  0.1319716479E-15 -0.2275337211E+01  0.5595395970E+16  0.4279012208E+01  0.9738419033E-16 -0.1469180733E+01
  0.1200000000E+01  0.1000000000E+01  0.1429536967E+00  0.4455924332E+01 -0.2715403396E-16 -0.2124441028E+01  0.5595395970E+16  0.4692559969E+01 -0.3406350844E-16 -0.1256847932E+01
  0.1600000000E+01  0.1000000000E+01  0.2570463033E+00  0.1026159771E+02  0.7043170393E-16 -0.4959209243E+01  0.5595395970E+16  0.9905218808E+01  0.6913677307E-16 -0.4784705852E+01
  0.1553011065E+01  0.1000000000E+01  0.2570463033E+00  0.9410372107E+01  0.6969513008E-16 -0.3785707923E+01  0.5595395970E+16  0.9352213002E+01  0.7404296107E-16 -0.3466608690E+01
  0.1457046303E+01  0.1000000000E+01  0.2570463033E+00  0.8130453004E+01  0.5979189617E-16 -0.3511307444E+01  0.5595395970E+16  0.8344207753E+01  0.7180851775E-16 -0.2971970968E+01
  0.1342953697E+01  0.1000000000E+01  0.2570463033E+00  0.6697679266E+01  0.1012611521E-16 -0.2536906520E+01  0.5595395970E+16  0.6996060810E+01  0.2690251679E-16 -0.1894055447E+01
  0.1246988935E+01  0.1000000000E+01  0.2570463033E+00  0.5648349288E+01 -0.7887432211E-16 -0.3386007385E+01  0.5595395970E+16  0.5846911701E+01 -0.5792595338E-16 -0.2603073974E+01
  0.1200000000E+01  0.1000000000E+01  0.2570463033E+00  0.5092487015E+01 -0.2943545122E-16 -0.3165753388E+01  0.5595395970E+16  0.5106071213E+01 -0.2756709319E-16 -0.2286074220E+01
  0.1600000000E+01  0.1000000000E+01  0.3530110648E+00  0.8962102727E+01  0.1743644021E-15 -0.5050047507E+01  0.5595395970E+16  0.8438415946E+01  0.1749713895E-15 -0.4378844713E+01
  0.1553011065E+01  0.1000000000E+01  0.3530110648E+00  0.9335171939E+01  0.1573934879E-15 -0.4906526035E+01  0.5595395970E+16  0.9103706915E+01  0.1561627378E-15 -0.4208084879E+01
  0.1457046303E+01  0.1000000000E+01  0.3530110648E+00  0.8344599830E+01  0.7205791452E-16 -0.4620054617E+01  0.5595395970E+16  0.8438952004E+01  0.6722718278E-16 -0.3856985690E+01
  0.1342953697E+01  0.1000000000E+01  0.3530110648E+00  0.7285637537E+01  0.6458317900E-16 -0.4133386306E+01  0.5595395970E+16  0.7480952705E+01  0.6261916781E-16 -0.3228354830E+01
  0.1246988935E+01  0.1000000000E+01  0.3530110648E+00  0.5989877974E+01  0.8970707257E-16 -0.4435010847E+01  0.5595395970E+16  0.6026661883E+01  0.7849650178E-16 -0.3403619791E+01
  0.1200000000E+01  0.1000000000E+01  0.3530110648E+00  0.5783457194E+01 -0.1454302706E-17 -0.4392228248E+01  0.5595395970E+16  0.5605605115E+01 -0.3861625508E-18 -0.3290514440E+01
  0.1600000000E+01  0.1000000000E+01  0.4000000000E+00  0.9171342551E+01  0.1652199186E-15 -0.5691448245E+01  0.5595395970E+16  0.8602152459E+01  0.1664580613E-15 -0.5343999299E+01
  0.1553011065E+01  0.1000000000E+01  0.4000000000E+00  0.8769056232E+01  0.1993624598E-15 -0.4860042839E+01  0.5595395970E+16  0.8519848247E+01  0.2136972656E-15 -0.4459418874E+01
  0.1457046303E+01  0.1000000000E+01  0.4000000000E+00  0.8426418562E+01  0.1368129993E-15 -0.5060214921E+01  0.5595395970E+16  0.8469903495E+01  0.1429833038E-15 -0.4568461578E+01
  0.1342953697E+01  0.1000000000E+01  0.4000000000E+00  0.7169764885E+01 -0.1278576054E-16 -0.4485732555E+01  0.5595395970E+16  0.7285547338E+01  0.5541957403E-17 -0.3781560644E+01
  0.1246988935E+01  0.1000000000E+01  0.4000000000E+00  0.6172223463E+01  0.4475062102E-16 -0.4925114861E+01  0.5595395970E+16  0.6141028774E+01  0.3171863843E-16 -0.4023152418E+01
  0.1200000000E+01  0.1000000000E+01  0.4000000000E+00  0.5487812716E+01 -0.3669133489E-17 -0.4603296242E+01  0.5595395970E+16  0.5242520956E+01 -0.2896316491E-17 -0.3636756722E+01
ZONE I=6, J=6, K=1, F=POINT
  0.2000000000E+01  0.1000000000E+01  0.0000000000E+00  0.2326924942E+01 -0.8805252252E-19  0.2117815829E+02  0.5595395970E+16  0.2365171294E+01 -0.1972930359E-19  0.2209300740E+02
  0.1953011065E+01  0.1000000000E+01  0.0000000000E+00  0.5971744716E+00 -0.2213129937E-16 -0.2204901636E+00  0.5595395970E+16  0.8847379413E+00 -0.2793855789E-16 -0.2290934277E+00
  0.1857046303E+01  0.1000000000E+01  0.0000000000E+00 -0.1136937115E+01 -0.6576144941E-16  0.1720331960E+00  0.5595395970E+16 -0.7507962056E+00 -0.4348619579E-16  0.1794125959E+00
  0.1742953697E+01  0.1000000000E+01  0.0000000000E+00 -0.5988216865E+00 -0.2026967740E-17 -0.4434055118E-01  0.5595395970E+16 -0.1966994251E+00 -0.1282468894E-17 -0.3865116021E-01
  0.1646988935E+01  0.1000000000E+01  0.0000000000E+00 -0.9216790774E+00  0.2488962478E-17  0.7125334420E-01  0.5595395970E+16 -0.4455924630E+00  0.6249703099E-18  0.7114455931E-01
  0.1600000000E+01  0.1000000000E+01  0.0000000000E+00 -0.5549840576E+00 -0.1213543863E-17 -0.5633938736E-01  0.5595395970E+16 -0.1419216260E+00 -0.1686000860E-17 -0.5879786095E-01
  0.2000000000E+01  0.1000000000E+01  0.4698893521E-01 -0.1026054848E+00  0.6904523697E-18  0.4776934484E+02  0.5595395970E+16 -0.1385243812E+00  0.2888058128E-18  0.4824944008E+02
  0.1953011065E+01  0.1000000000E+01  0.4698893521E-01  0.9697274295E+01  0.1224136079E-15  0.1460381902E+00  0.5595395970E+16  0.9082043973E+01  0.1148223501E-15 -0.3097241785E+00
  0.1857046303E+01  0.1000000000E+01  0.4698893521E-01  0.1004566118E+02  0.1756070236E-15 -0.3308431214E+01  0.5595395970E+16  0.9427793857E+01  0.1333704711E-15 -0.3397299922E+01
  0.1742953697E+01  0.1000000000E+01  0.4698893521E-01  0.4114332738E+01 -0.4897771264E-16 -0.2166904875E+01  0.5595395970E+16  0.3720741443E+01 -0.4726041814E-16 -0.1543818358E+01
  0.1646988935E+01  0.1000000000E+01  0.4698893521E-01  0.2571591691E+01 -0.2925508440E-16 -0.1808696347E+01  0.5595395970E+16  0.2313290858E+01 -0.1748146503E-16 -0.6303494610E+00
  0.1600000000E+01  0.1000000000E+01  0.4698893521E-01  0.1352393977E+01 -0.5464619939E-16 -0.7787587831E+00  0.5595395970E+16  0.1380714123E+01 -0.5547585109E-16  0.4770811916E+00
  0.2000000000E+01  0.1000000000E+01  0.1429536967E+00 -0.2671496507E+00  0.3672443930E-17  0.4961646196E+02  0.5595395970E+16 -0.2334974204E+00  0.5446203799E-17  0.4999858878E+02
  0.1953011065E+01  0.1000000000E+01  0.1429536967E+00  0.1470905259E+01 -0.6335718831E-15  0.1464839631E+02  0.5595395970E+16  0.8334185417E+00 -0.6899437603E-15  0.1423132015E+02
  0.1857046303E+01  0.1000000000E+01  0.1429536967E+00  0.1130096343E+02 -0.1917124386E-15 -0.5396141537E+01  0.5595395970E+16  0.1014532972E+02 -0.1237207038E-15 -0.5735369408E+01
  0.1742953697E+01  0.1000000000E+01  0.1429536967E+00  0.8387940670E+01 -0.2056855504E-15 -0.5929703272E+01  0.5595395970E+16  0.7297480588E+01 -0.3113374308E-15 -0.5629789987E+01
  0.1646988935E+01  0.1000000000E+01  0.1429536967E+00  0.7189581840E+01 -0.1861013609E-15 -0.3826162431E+01  0.5595395970E+16  0.6603865072E+01 -0.1931707854E-15 -0.3142948749E+01
  0.1600000000E+01  0.1000000000E+01  0.1429536967E+00  0.4553745755E+01 -0.3893081889E-15 -0.3491494631E+01  0.5595395970E+16  0.4538457679E+01 -0.3891859538E-15 -0.2726188377E+01
  0.2000000000E+01  0.1000000000E+01  0.2570463033E+00  0.7494308240E-02  0.7655849776E-18  0.4906042391E+02  0.5595395970E+16  0.1693913017E-01  0.8400674700E-18  0.4955976575E+02