TITLE = "Generated from ../MESH/Convergence_0000000000.hmesh and Convergence_0000002800.hsol"
VARIABLES = "x","y","z","veloT_x","veloT_y","veloT_z","slr_4","velo_x","velo_y","velo_z"
ZONE I=6, J=6, K=1, F=POINT
  0.4000000000E+00  0.1000000000E+01  0.0000000000E+00 -0.1197445616E-01  0.2797376197E-19  0.7181139733E-02  0.6472118279E+15 -0.1151667242E-01  0.2828779335E-19  0.6942434728E-02
  0.3530110648E+00  0.1000000000E+01  0.0000000000E+00 -0.1395696911E-02  0.1106207369E-19 -0.3597607754E-03  0.6472118279E+15 -0.1155740332E-02  0.1122522144E-19 -0.4831863239E-03
  0.2570463033E+00  0.1000000000E+01  0.0000000000E+00  0.2127227066E-03  0.1881547601E-20  0.2349982117E-02  0.6472118279E+15  0.2640625730E-03  0.2080722676E-20  0.2334083793E-02
  0.1429536967E+00  0.1000000000E+01  0.0000000000E+00 -0.3793856691E-03  0.4454842614E-21 -0.1094597661E-02  0.6472118279E+15 -0.4291444657E-03  0.4818782960E-21 -0.1104214922E-02
  0.4698893521E-01  0.1000000000E+01  0.0000000000E+00  0.2303905338E-02 -0.2119731394E-20  0.1820735903E-02  0.6472118279E+15  0.2227080169E-02 -0.2054217435E-20  0.1791839687E-02
  0.0000000000E+00  0.1000000000E+01  0.0000000000E+00 -0.7428593171E-02  0.1542833919E-22  0.1958022886E-02  0.6472118279E+15 -0.7400327917E-02  0.1506888645E-22  0.1996716890E-02
  0.4000000000E+00  0.1000000000E+01  0.4698893521E-01  0.2630090574E+00  0.2760011488E-17 -0.5096571437E-01  0.6472118279E+15  0.2640269141E+00  0.2754521551E-17 -0.4456468366E-01
  0.3530110648E+00  0.1000000000E+01  0.4698893521E-01  0.1261968254E+00  0.2466421886E-17 -0.1368665110E-01  0.6472118279E+15  0.1261712420E+00  0.2460211291E-17 -0.7840322718E-02
  0.2570463033E+00  0.1000000000E+01  0.4698893521E-01  0.1012278270E+00  0.8589197119E-18 -0.2419530785E-01  0.6472118279E+15  0.1016501058E+00  0.8660292663E-18 -0.1916414375E-01
  0.1429536967E+00  0.1000000000E+01  0.4698893521E-01  0.6603593001E-02  0.1617909313E-18 -0.1410685253E-01  0.6472118279E+15  0.7998376180E-02  0.1670292246E-18 -0.1202802054E-01
  0.4698893521E-01  0.1000000000E+01  0.4698893521E-01 -0.7122169256E-03  0.2276214533E-19 -0.9868512410E-02  0.6472118279E+15  0.2099297736E-03  0.2371783850E-19 -0.1032504476E-01
  0.0000000000E+00  0.1000000000E+01  0.4698893521E-01 -0.1804589770E-01  0.9649171285E-21  0.1845206883E-02  0.6472118279E+15 -0.1805832552E-01  0.9729116053E-21  0.1873150465E-02
  0.4000000000E+00  0.1000000000E+01  0.1429536967E+00  0.5683558190E+00  0.8864067516E-17 -0.1390158001E+00  0.6472118279E+15  0.5721224422E+00  0.8920599857E-17 -0.1274075835E+00
  0.3530110648E+00  0.1000000000E+01  0.1429536967E+00  0.3192034477E+00  0.5436919281E-17 -0.1752575741E+00  0.6472118279E+15  0.3203168493E+00  0.5365732051E-17 -0.1648308168E+00
  0.2570463033E+00  0.1000000000E+01  0.1429536967E+00  0.2273969264E+00  0.1796322087E-17 -0.1143216735E+00  0.6472118279E+15  0.2301435150E+00  0.1802805146E-17 -0.1060073291E+00
  0.1429536967E+00  0.1000000000E+01  0.1429536967E+00  0.3286779787E-01  0.5194457634E-18 -0.1217109218E+00  0.6472118279E+15  0.3845910157E-01  0.5217824780E-18 -0.1182487578E+00
  0.4698893521E-01  0.1000000000E+01  0.1429536967E+00 -0.7095012925E-02  0.9949855400E-19 -0.1347240116E-01  0.6472118279E+15 -0.4261439950E-02  0.9903330046E-19 -0.1349610423E-01
  0.0000000000E+00  0.1000000000E+01  0.1429536967E+00 -0.2134593692E-01  0.3786132908E-21 -0.1729352774E-02  0.6472118279E+15 -0.2139717176E-01  0.3717200943E-21 -0.1626886014E-02
  0.4000000000E+00  0.1000000000E+01  0.2570463033E+00  0.6122636016E+00  0.2191791631E-17 -0.3885758383E+00  0.6472118279E+15  0.6197475229E+00  0.2187853125E-17 -0.3744152303E+00
  0.3530110648E+00  0.1000000000E+01  0.2570463033E+00  0.4496512905E+00  0.7511988008E-18 -0.4312491205E+00  0.6472118279E+15  0.4553572581E+00  0.9235742654E-18 -0.4196160337E+00
  0.2570463033E+00  0.1000000000E+01  0.2570463033E+00  0.2757851806E+00  0.9623148958E-18 -0.3025336433E+00  0.6472118279E+15  0.2836780337E+00  0.9619266361E-18 -0.2976703498E+00
  0.1429536967E+00  0.1000000000E+01  0.2570463033E+00  0.7137599242E-01  0.8759368179E-18 -0.2861072850E+00  0.6472118279E+15  0.8091796180E-01  0.8760052024E-18 -0.2855339769E+00
  0.4698893521E-01  0.1000000000E+01  0.2570463033E+00  0.4138528118E-02  0.7739254882E-18 -0.5406892610E-01  0.6472118279E+15  0.8702244459E-02  0.7659511635E-18 -0.5470746132E-01
  0.0000000000E+00  0.1000000000E+01  0.2570463033E+00 -0.1425180376E-01 -0.4663374737E-20 -0.1360888521E-02  0.6472118279E+15 -0.1420109040E-01 -0.4613014107E-20 -0.1556920119E-02
  0.4000000000E+00  0.1000000000E+01  0.3530110648E+00  0.6064702070E+00  0.2215181853E-17 -0.6178759973E+00  0.6472118279E+15  0.6198045829E+00  0.2209644094E-17 -0.6013404764E+00
  0.3530110648E+00  0.1000000000E+01  0.3530110648E+00  0.4370512287E+00  0.1870205722E-17 -0.6311696177E+00  0.6472118279E+15  0.4517925493E+00  0.1872807911E-17 -0.6198080173E+00
  0.2570463033E+00  0.1000000000E+01  0.3530110648E+00  0.2613923432E+00  0.1022426960E-17 -0.4881033151E+00  0.6472118279E+15  0.2755152988E+00  0.9769797707E-18 -0.4851356983E+00
  0.1429536967E+00  0.1000000000E+01  0.3530110648E+00  0.6157976344E-01  0.1323889559E-17 -0.4164976975E+00  0.6472118279E+15  0.7221914980E-01  0.1330336365E-17 -0.4171274062E+00
  0.4698893521E-01  0.1000000000E+01  0.3530110648E+00  0.2442051946E-02  0.3672564180E-18 -0.1140067216E+00  0.6472118279E+15  0.7525450268E-02  0.3783171926E-18 -0.1152334630E+00
  0.0000000000E+00  0.1000000000E+01  0.3530110648E+00 -0.1415307761E-01  0.4434916093E-20 -0.1687413009E-02  0.6472118279E+15 -0.1418395665E-01  0.4225811362E-20 -0.1975675129E-02
  0.4000000000E+00  0.1000000000E+01  0.4000000000E+00  0.5690612610E+00  0.4198335808E-17 -0.7222395062E+00  0.6472118279E+15  0.5889304801E+00  0.4192182299E-17 -0.7068646513E+00
  0.3530110648E+00  0.1000000000E+01  0.4000000000E+00  0.4508954436E+00  0.3618683170E-17 -0.7283924079E+00  0.6472118279E+15  0.4704647063E+00  0.3616267484E-17 -0.7189960276E+00
  0.2570463033E+00  0.1000000000E+01  0.4000000000E+00  0.2524351154E+00  0.6842309574E-18 -0.5767519297E+00  0.6472118279E+15  0.2687189390E+00  0.6808275473E-18 -0.5718780828E+00
  0.1429536967E+00  0.1000000000E+01  0.4000000000E+00  0.6484885918E-01  0.1309190687E-17 -0.4825656989E+00  0.6472118279E+15  0.7638055452E-01  0.1345807262E-17 -0.4806937858E+00
  0.4698893521E-01  0.1000000000E+01  0.4000000000E+00 -0.2956697515E-02  0.3437022517E-18 -0.1420353347E+00  0.6472118279E+15  0.2500957219E-02  0.3441813418E-18 -0.1423413142E+00
  0.0000000000E+00  0.1000000000E+01  0.4000000000E+00 -0.6187622233E-02  0.8060119440E-20 -0.3276980817E-02  0.6472118279E+15 -0.6498067288E-02  0.8181558181E-20 -0.3137742386E-02
ZONE I=6, J=6, K=1, F=POINT
  0.8000000000E+00  0.1000000000E+01  0.0000000000E+00  0.1716153791E-01 -0.8128240569E-19 -0.1177950751E-01  0.6472118279E+15  0.1727398421E-01 -0.8336791106E-19 -0.1217569285E-01
  0.7530110648E+00  0.1000000000E+01  0.0000000000E+00  0.1591749765E-02  0.7768068726E-19  0.5909382453E-02  0.6472118279E+15  0.2018727101E-02  0.8723396235E-19  0.5879878427E-02
  0.6570463033E+00  0.1000000000E+01  0.0000000000E+00 -0.1041710732E-02  0.1618033731E-19  0.3118898585E-03  0.6472118279E+15 -0.4515254141E-03  0.2219216117E-19  0.2479358728E-03
  0.5429536967E+00  0.1000000000E+01  0.0000000000E+00  0.3650718383E-03  0.1812074164E-19  0.6871525587E-02  0.6472118279E+15  0.9164115064E-03  0.2967857732E-19  0.6867994089E-02
  0.4469889352E+00  0.1000000000E+01  0.0000000000E+00 -0.1767331557E-02 -0.2846873846E-19  0.4921462965E-03  0.6472118279E+15 -0.1408647604E-02 -0.1704426354E-19  0.3727301596E-03
  0.4000000000E+00  0.1000000000E+01  0.0000000000E+00  0.1502941447E-01  0.3161542293E-19  0.6882567716E-02  0.6472118279E+15  0.1519449545E-01  0.3191562137E-19  0.6635437495E-02
  0.8000000000E+00  0.1000000000E+01  0.4698893521E-01  0.3093811951E+00 -0.2503275088E-16 -0.8290758377E-02  0.6472118279E+15  0.3084686997E+00 -0.2501642289E-16  0.1165120350E-01
  0.7530110648E+00  0.1000000000E+01  0.4698893521E-01  0.5050128575E+00 -0.2434685719E-16 -0.6782564474E-01  0.6472118279E+15  0.5054660368E+00 -0.2439450152E-16 -0.4858999725E-01
  0.6570463033E+00  0.1000000000E+01  0.4698893521E-01  0.2913240776E+00 -0.5279981240E-17 -0.3677795285E-01  0.6472118279E+15  0.2928368447E+00 -0.5237667552E-17 -0.1988813680E-01
  0.5429536967E+00  0.1000000000E+01  0.4698893521E-01  0.3246893602E+00  0.4071206406E-17 -0.2360938677E-01  0.6472118279E+15  0.3267117830E+00  0.4113345484E-17 -0.1156557674E-01
  0.4469889352E+00  0.1000000000E+01  0.4698893521E-01  0.1997702378E+00  0.3730215060E-17 -0.1025708149E-01  0.6472118279E+15  0.2019311526E+00  0.3710931764E-17 -0.2526579506E-02
  0.4000000000E+00  0.1000000000E+01  0.4698893521E-01  0.3055142397E+00  0.2516496852E-17 -0.5172478899E-01  0.6472118279E+15  0.3063296609E+00  0.2511958324E-17 -0.4530915937E-01
  0.8000000000E+00  0.1000000000E+01  0.1429536967E+00  0.9436280253E+00 -0.5625116182E-16 -0.3749043110E+00  0.6472118279E+15  0.9437839382E+00 -0.5623424133E-16 -0.3402801457E+00
  0.7530110648E+00  0.1000000000E+01  0.1429536967E+00  0.1247559335E+01 -0.3613010782E-16 -0.2356656636E+00  0.6472118279E+15  0.1252320665E+01 -0.3638358784E-16 -0.2030020975E+00
  0.6570463033E+00  0.1000000000E+01  0.1429536967E+00  0.8292311032E+00 -0.5640539153E-17 -0.2345132039E+00  0.6472118279E+15  0.8365691943E+00 -0.5921548388E-17 -0.2089112486E+00
  0.5429536967E+00  0.1000000000E+01  0.1429536967E+00  0.7778856661E+00  0.8420160443E-17 -0.9012067334E-01  0.6472118279E+15  0.7855384446E+00  0.8650684123E-17 -0.7244796684E-01
  0.4469889352E+00  0.1000000000E+01  0.1429536967E+00  0.4901457991E+00  0.9036667440E-17 -0.1646127148E+00  0.6472118279E+15  0.4961861917E+00  0.8928109275E-17 -0.1515686087E+00
  0.4000000000E+00  0.1000000000E+01  0.1429536967E+00  0.6197642202E+00  0.9573469964E-17 -0.1384754839E+00  0.6472118279E+15  0.6230332512E+00  0.9626272413E-17 -0.1268755418E+00
  0.8000000000E+00  0.1000000000E+01  0.2570463033E+00  0.1782710451E+01 -0.1711477476E-16 -0.8613185322E+00  0.6472118279E+15  0.1782491168E+01 -0.1712017507E-16 -0.8336735579E+00
  0.7530110648E+00  0.1000000000E+01  0.2570463033E+00  0.1680490802E+01 -0.1363895784E-16 -0.6198325981E+00  0.6472118279E+15  0.1688682082E+01 -0.1325432891E-16 -0.5904422491E+00
  0.6570463033E+00  0.1000000000E+01  0.2570463033E+00  0.1264834052E+01 -0.6444792234E-17 -0.5771060146E+00  0.6472118279E+15  0.1280178381E+01 -0.6869421352E-17 -0.5485057353E+00
  0.5429536967E+00  0.1000000000E+01  0.2570463033E+00  0.9709008528E+00  0.6042845678E-18 -0.3320241067E+00  0.6472118279E+15  0.9853929312E+00  0.8406222976E-18 -0.3107229195E+00
  0.4469889352E+00  0.1000000000E+01  0.2570463033E+00  0.6726051209E+00  0.1415925841E-17 -0.4366770464E+00  0.6472118279E+15  0.6827105140E+00  0.1623650626E-17 -0.4204393718E+00
  0.4000000000E+00  0.1000000000E+01  0.2570463033E+00  0.6434229156E+00  0.2216257337E-17 -0.3879410231E+00  0.6472118279E+15  0.6505860883E+00  0.2214133794E-17 -0.3738128829E+00
  0.8000000000E+00  0.1000000000E+01  0.3530110648E+00  0.1856759971E+01 -0.3665360082E-17 -0.1246899102E+01  0.6472118279E+15  0.1851752887E+01 -0.3641482164E-17 -0.1225707037E+01
  0.7530110648E+00  0.1000000000E+01  0.3530110648E+00  0.1798559449E+01  0.2663365411E-17 -0.1043096033E+01  0.6472118279E+15  0.1798880042E+01  0.2657887138E-17 -0.1017226778E+01
  0.6570463033E+00  0.1000000000E+01  0.3530110648E+00  0.1363388933E+01 -0.3517997679E-17 -0.8949710963E+00  0.6472118279E+15  0.1379350196E+01 -0.4553867895E-17 -0.8599164986E+00
  0.5429536967E+00  0.1000000000E+01  0.3530110648E+00  0.1018407066E+01 -0.2514542663E-17 -0.6161315020E+00  0.6472118279E+15  0.1040908424E+01 -0.4154053407E-17 -0.5858442143E+00
  0.4469889352E+00  0.1000000000E+01  0.3530110648E+00  0.6558584724E+00  0.2062895868E-17 -0.6611783355E+00  0.6472118279E+15  0.6719600380E+00  0.1914428983E-17 -0.6404267969E+00
  0.4000000000E+00  0.1000000000E+01  0.3530110648E+00  0.6386968766E+00  0.2194378922E-17 -0.6176929117E+00  0.6472118279E+15  0.6526513975E+00  0.2184920511E-17 -0.6011369734E+00
  0.8000000000E+00  0.1000000000E+01  0.4000000000E+00  0.1890583462E+01 -0.1032928895E-16 -0.1479066781E+01  0.6472118279E+15  0.1883231764E+01 -0.1032979119E-16 -0.1457737555E+01
  0.7530110648E+00  0.1000000000E+01  0.4000000000E+00  0.1713714797E+01 -0.5966652340E-17 -0.1215524849E+01  0.6472118279E+15  0.1708355085E+01 -0.5978177499E-17 -0.1189743972E+01
  0.6570463033E+00  0.1000000000E+01  0.4000000000E+00  0.1338844221E+01 -0.3513038812E-17 -0.1057052104E+01  0.6472118279E+15  0.1352457686E+01 -0.3294316488E-17 -0.1022399678E+01
  0.5429536967E+00  0.1000000000E+01  0.4000000000E+00  0.9773389969E+00  0.2933762098E-17 -0.7896310912E+00  0.6472118279E+15  0.1004315473E+01  0.4046913757E-17 -0.7565345193E+00
  0.4469889352E+00  0.1000000000E+01  0.4000000000E+00  0.6867300898E+00  0.4092077564E-17 -0.7845775037E+00  0.6472118279E+15  0.7080292699E+00  0.4399054867E-17 -0.7634667660E+00
  0.4000000000E+00  0.1000000000E+01  0.4000000000E+00  0.5812328977E+00  0.4219559670E-17 -0.7215060900E+00  0.6472118279E+15  0.6002604278E+00  0.4216063935E-17 -0.7061659718E+00
ZONE I=6, J=6, K=1, F=POINT
  0.1200000000E+01  0.1000000000E+01  0.0000000000E+00 -0.3231425507E-01  0.5810468302E-19  0.3657973619E-01  0.6472118279E+15 -0.3267002541E-01  0.5964593272E-19  0.3692265944E-01
  0.1153011065E+01  0.1000000000E+01  0.0000000000E+00 -0.5703125015E-02 -0.2348882904E-18 -0.9661804691E-02  0.6472118279E+15 -0.6135663438E-02 -0.2595635216E-18 -0.9488099409E-02
  0.1057046303E+01  0.1000000000E+01  0.0000000000E+00  0.1620015732E-02  0.7894125785E-20  0.5962728494E-02  0.6472118279E+15  0.1360217959E-02  0.1185030279E-21  0.5940678048E-02
  0.9429536967E+00  0.1000000000E+01  0.0000000000E+00 -0.2795773679E-02  0.1083412598E-19 -0.8201848250E-02  0.6472118279E+15 -0.3045476490E-02  0.9346126312E-20 -0.8221217781E-02
  0.8469889352E+00  0.1000000000E+01  0.0000000000E+00  0.2692607514E-02 -0.1664156014E-19  0.5282391098E-02  0.6472118279E+15  0.2492706711E-02 -0.1894819510E-19  0.5187120855E-02
  0.8000000000E+00  0.1000000000E+01  0.0000000000E+00 -0.2781324893E-01 -0.9087289367E-19 -0.1125863961E-01  0.6472118279E+15 -0.2779738806E-01 -0.9314007647E-19 -0.1165004254E-01
  0.1200000000E+01  0.1000000000E+01  0.4698893521E-01  0.2079965832E+01 -0.4194633128E-16 -0.1943715137E+00  0.6472118279E+15  0.2078744618E+01 -0.4186881800E-16 -0.1827812710E+00
  0.1153011065E+01  0.1000000000E+01  0.4698893521E-01  0.1410031853E+01 -0.2675503985E-16 -0.5026290526E-01  0.6472118279E+15  0.1407876525E+01 -0.2669807973E-16 -0.3796965967E-01
  0.1057046303E+01  0.1000000000E+01  0.4698893521E-01  0.1296748618E+01 -0.1310660355E-16 -0.9291956427E-01  0.6472118279E+15  0.1294420200E+01 -0.1311514205E-16 -0.7931249454E-01
  0.9429536967E+00  0.1000000000E+01  0.4698893521E-01  0.7181781850E+00 -0.1617835408E-16 -0.8910952146E-01  0.6472118279E+15  0.7156210983E+00 -0.1609256023E-16 -0.7197516987E-01
  0.8469889352E+00  0.1000000000E+01  0.4698893521E-01  0.6318717397E+00 -0.2926505566E-16 -0.9303491183E-01  0.6472118279E+15  0.6300234655E+00 -0.2919905916E-16 -0.7347385556E-01
  0.8000000000E+00  0.1000000000E+01  0.4698893521E-01  0.2488148115E+00 -0.2433953859E-16 -0.6243886001E-02  0.6472118279E+15  0.2485091276E+00 -0.2433573513E-16  0.1366175304E-01
  0.1200000000E+01  0.1000000000E+01  0.1429536967E+00  0.4695195083E+01 -0.5927271197E-16 -0.5716308113E+00  0.6472118279E+15  0.4694128980E+01 -0.5912854036E-16 -0.5564701975E+00
  0.1153011065E+01  0.1000000000E+01  0.1429536967E+00  0.3282700867E+01 -0.6892328571E-16 -0.7794554480E+00  0.6472118279E+15  0.3279020900E+01 -0.6929925545E-16 -0.7622907285E+00
  0.1057046303E+01  0.1000000000E+01  0.1429536967E+00  0.2967285156E+01 -0.4206177938E-16 -0.5771978769E+00  0.6472118279E+15  0.2961061947E+01 -0.4203840679E-16 -0.5556455071E+00
  0.9429536967E+00  0.1000000000E+01  0.1429536967E+00  0.1789428784E+01 -0.3764330465E-16 -0.7062792239E+00  0.6472118279E+15  0.1781947626E+01 -0.3761924608E-16 -0.6770791222E+00
  0.8469889352E+00  0.1000000000E+01  0.1429536967E+00  0.1556186338E+01 -0.5322270115E-16 -0.3867287818E+00  0.6472118279E+15  0.1552131139E+01 -0.5329395526E-16 -0.3528144733E+00
  0.8000000000E+00  0.1000000000E+01  0.1429536967E+00  0.8602113580E+00 -0.5845918535E-16 -0.3764606935E+00  0.6472118279E+15  0.8613341681E+00 -0.5847290415E-16 -0.3418351035E+00
  0.1200000000E+01  0.1000000000E+01  0.2570463033E+00  0.4577996924E+01 -0.1205143230E-16 -0.1590290091E+01  0.6472118279E+15  0.4567395839E+01 -0.1200795989E-16 -0.1584232976E+01
  0.1153011065E+01  0.1000000000E+01  0.2570463033E+00  0.4100710613E+01 -0.4947162593E-16 -0.1831451132E+01  0.6472118279E+15  0.4090058412E+01 -0.4810304428E-16 -0.1822937833E+01
  0.1057046303E+01  0.1000000000E+01  0.2570463033E+00  0.3384345656E+01 -0.3986484843E-16 -0.1437791913E+01  0.6472118279E+15  0.3371189292E+01 -0.3990110067E-16 -0.1421652617E+01
  0.9429536967E+00  0.1000000000E+01  0.2570463033E+00  0.2554397213E+01 -0.3885079079E-16 -0.1511867345E+01  0.6472118279E+15  0.2540340410E+01 -0.3807413672E-16 -0.1490037809E+01
  0.8469889352E+00  0.1000000000E+01  0.2570463033E+00  0.2107059395E+01 -0.1912992901E-16 -0.9228971761E+00  0.6472118279E+15  0.2099404427E+01 -0.1906388819E-16 -0.8970346948E+00
  0.8000000000E+00  0.1000000000E+01  0.2570463033E+00  0.1745207567E+01 -0.1729139081E-16 -0.8637146248E+00  0.6472118279E+15  0.1744987385E+01 -0.1728328973E-16 -0.8357702666E+00
  0.1200000000E+01  0.1000000000E+01  0.3530110648E+00  0.4561961794E+01  0.2180335250E-16 -0.2634776340E+01  0.6472118279E+15  0.4548754221E+01  0.2183599680E-16 -0.2630166735E+01
  0.1153011065E+01  0.1000000000E+01  0.3530110648E+00  0.3906518244E+01  0.9180500067E-18 -0.2540705249E+01  0.6472118279E+15  0.3888128320E+01  0.1187001385E-17 -0.2532914672E+01
  0.1057046303E+01  0.1000000000E+01  0.3530110648E+00  0.3327489059E+01 -0.1836815814E-16 -0.2155774765E+01  0.6472118279E+15  0.3308987930E+01 -0.1854165391E-16 -0.2141981442E+01
  0.9429536967E+00  0.1000000000E+01  0.3530110648E+00  0.2560942265E+01 -0.2450670862E-16 -0.1976752890E+01  0.6472118279E+15  0.2544865208E+01 -0.2409039459E-16 -0.1960133176E+01
  0.8469889352E+00  0.1000000000E+01  0.3530110648E+00  0.2229467531E+01 -0.6589534813E-17 -0.1417383591E+01  0.6472118279E+15  0.2217490610E+01 -0.7119505245E-17 -0.1398928717E+01
  0.8000000000E+00  0.1000000000E+01  0.3530110648E+00  0.1810321532E+01 -0.3620050232E-17 -0.1247108593E+01  0.6472118279E+15  0.1805487234E+01 -0.3582370560E-17 -0.1225973272E+01
  0.1200000000E+01  0.1000000000E+01  0.4000000000E+00  0.4154952660E+01  0.2529341174E-16 -0.2896558239E+01  0.6472118279E+15  0.4138041552E+01  0.2531665909E-16 -0.2884157288E+01
  0.1153011065E+01  0.1000000000E+01  0.4000000000E+00  0.3865053733E+01  0.1662450112E-16 -0.2984891327E+01  0.6472118279E+15  0.3844084005E+01  0.1634337505E-16 -0.2971006750E+01
  0.1057046303E+01  0.1000000000E+01  0.4000000000E+00  0.3159493994E+01 -0.8041914223E-17 -0.2465959870E+01  0.6472118279E+15  0.3139383991E+01 -0.8055518191E-17 -0.2449488835E+01
  0.9429536967E+00  0.1000000000E+01  0.4000000000E+00  0.2532018743E+01 -0.2398867390E-16 -0.2256527404E+01  0.6472118279E+15  0.2515138811E+01 -0.2330683366E-16 -0.2236336366E+01
  0.8469889352E+00  0.1000000000E+01  0.4000000000E+00  0.2105456006E+01 -0.1567982608E-16 -0.1613969583E+01  0.6472118279E+15  0.2092674508E+01 -0.1592898146E-16 -0.1593805409E+01
  0.8000000000E+00  0.1000000000E+01  0.4000000000E+00  0.1886343989E+01 -0.1031522745E-16 -0.1482238870E+01  0.6472118279E+15  0.1878031732E+01 -0.1031120958E-16 -0.1460636085E+01
ZONE I=6, J=6, K=1, F=POINT
  0.1600000000E+01  0.1000000000E+01  0.0000000000E+00  0.1295603569E+00 -0.8887700556E-18 -0.7211610810E-01  0.6472118279E+15  0.1284778914E+00 -0.1013474884E-17 -0.7228010292E-01
  0.1553011065E+01  0.1000000000E+01  0.0000000000E+00  0.9622017008E-02 -0.1275994392E-17  0.4531801876E-01  0.6472118279E+15  0.8956154922E-02 -0.1274628929E-17  0.4508477051E-01
  0.1457046303E+01  0.1000000000E+01  0.0000000000E+00 -0.8036529127E-02 -0.6468336301E-19 -0.3364812947E-02  0.6472118279E+15 -0.8824035751E-02 -0.6723450448E-19 -0.3386644674E-02
  0.1342953697E+01  0.1000000000E+01  0.0000000000E+00  0.4652669032E-02  0.3671572692E-18  0.2980409694E-01  0.6472118279E+15  0.4090228311E-02  0.3374789339E-18  0.2972188279E-01
  0.1246988935E+01  0.1000000000E+01  0.0000000000E+00 -0.8210999589E-02  0.1186591383E-18 -0.8241731518E-02  0.6472118279E+15 -0.8527984694E-02  0.1234994685E-18 -0.8171321847E-02
  0.1200000000E+01  0.1000000000E+01  0.0000000000E+00  0.5699766373E-01  0.6223164667E-19  0.3664673174E-01  0.6472118279E+15  0.5676359850E-01  0.6372841206E-19  0.3698749295E-01
  0.1600000000E+01  0.1000000000E+01  0.4698893521E-01  0.2959723113E+01 -0.8959596403E-16  0.2039877912E+00  0.6472118279E+15  0.2955379095E+01 -0.8949377347E-16  0.2086701766E+00
  0.1553011065E+01  0.1000000000E+01  0.4698893521E-01  0.3401543740E+01 -0.4520417838E-16 -0.2968051397E+00  0.6472118279E+15  0.3399475119E+01 -0.4526842005E-16 -0.2925846531E+00
  0.1457046303E+01  0.1000000000E+01  0.4698893521E-01  0.2383401269E+01 -0.5334495885E-17 -0.9607546170E-01  0.6472118279E+15  0.2381502896E+01 -0.5262784191E-17 -0.9198509808E-01
  0.1342953697E+01  0.1000000000E+01  0.4698893521E-01  0.2357071679E+01  0.2920761659E-16 -0.5909930405E-01  0.6472118279E+15  0.2354367347E+01  0.2918519706E-16 -0.5281842772E-01
  0.1246988935E+01  0.1000000000E+01  0.4698893521E-01  0.1800976281E+01 -0.6333869603E-17 -0.1857979269E-01  0.6472118279E+15  0.1798801403E+01 -0.6429620746E-17 -0.8250505679E-02
  0.1200000000E+01  0.1000000000E+01  0.4698893521E-01  0.2178138227E+01 -0.4616379924E-16 -0.2000394515E+00  0.6472118279E+15  0.2174832106E+01 -0.4604934795E-16 -0.1880887003E+00
  0.1600000000E+01  0.1000000000E+01  0.1429536967E+00  0.6037253481E+01 -0.2681793447E-15 -0.1967145839E+01  0.6472118279E+15  0.6017859644E+01 -0.2683830855E-15 -0.1962897312E+01
  0.1553011065E+01  0.1000000000E+01  0.1429536967E+00  0.7648091634E+01 -0.1477266915E-15 -0.1100625115E+01  0.6472118279E+15  0.7645905408E+01 -0.1478326141E-15 -0.1095968478E+01
  0.1457046303E+01  0.1000000000E+01  0.1429536967E+00  0.5487058450E+01  0.3114931340E-16 -0.1004228627E+01  0.6472118279E+15  0.5484961755E+01  0.3082093911E-16 -0.9985665972E+00
  0.1342953697E+01  0.1000000000E+01  0.1429536967E+00  0.5418388092E+01  0.1021389754E-15 -0.2054952836E+00  0.6472118279E+15  0.5411795637E+01  0.1019129171E-15 -0.1967335427E+00
  0.1246988935E+01  0.1000000000E+01  0.1429536967E+00  0.4105159968E+01  0.2659522442E-16 -0.6994362696E+00  0.6472118279E+15  0.4099331454E+01  0.2712950711E-16 -0.6861803173E+00
  0.1200000000E+01  0.1000000000E+01  0.1429536967E+00  0.4859837209E+01 -0.6342020939E-16 -0.5664783138E+00  0.6472118279E+15  0.4849670398E+01 -0.6318411005E-16 -0.5518929018E+00
  0.1600000000E+01  0.1000000000E+01  0.2570463033E+00  0.1049924715E+02  0.8435540758E-16 -0.4057168990E+01  0.6472118279E+15  0.1049785423E+02  0.8427968327E-16 -0.4067588455E+01
  0.1553011065E+01  0.1000000000E+01  0.2570463033E+00  0.9320757541E+01  0.1091609209E-15 -0.2887853967E+01  0.6472118279E+15  0.9317609321E+01  0.1089974393E-15 -0.2891132752E+01
  0.1457046303E+01  0.1000000000E+01  0.2570463033E+00  0.7828309006E+01  0.1794826620E-15 -0.2574233852E+01  0.6472118279E+15  0.7824437847E+01  0.1791323995E-15 -0.2573669077E+01
  0.1342953697E+01  0.1000000000E+01  0.2570463033E+00  0.6178798424E+01  0.1320997158E-15 -0.1217300335E+01  0.6472118279E+15  0.6171642301E+01  0.1316578779E-15 -0.1216711569E+01
  0.1246988935E+01  0.1000000000E+01  0.2570463033E+00  0.4996592481E+01  0.3993780117E-16 -0.1833882127E+01  0.6472118279E+15  0.4985862803E+01  0.3942800547E-16 -0.1830225369E+01
  0.1200000000E+01  0.1000000000E+01  0.2570463033E+00  0.4617450187E+01 -0.1237163261E-16 -0.1581514511E+01  0.6472118279E+15  0.4606803332E+01 -0.1231636260E-16 -0.1577771120E+01
  0.1600000000E+01  0.1000000000E+01  0.3530110648E+00  0.8628948078E+01  0.1664976871E-15 -0.4814049918E+01  0.6472118279E+15  0.8617800102E+01  0.1664844967E-15 -0.4816314926E+01
  0.1553011065E+01  0.1000000000E+01  0.3530110648E+00  0.8702613579E+01  0.1781610236E-15 -0.4601114993E+01  0.6472118279E+15  0.8693321527E+01  0.1780855114E-15 -0.4603781394E+01
  0.1457046303E+01  0.1000000000E+01  0.3530110648E+00  0.7345627323E+01  0.1826807012E-15 -0.3871957869E+01  0.6472118279E+15  0.7341431796E+01  0.1823243471E-15 -0.3873037804E+01
  0.1342953697E+01  0.1000000000E+01  0.3530110648E+00  0.6040076625E+01  0.1422012391E-15 -0.2734583007E+01  0.6472118279E+15  0.6032822564E+01  0.1419765341E-15 -0.2735622393E+01
  0.1246988935E+01  0.1000000000E+01  0.3530110648E+00  0.4700800101E+01  0.5505150305E-16 -0.2725701226E+01  0.6472118279E+15  0.4685661218E+01  0.5560196063E-16 -0.2722896120E+01
  0.1200000000E+01  0.1000000000E+01  0.3530110648E+00  0.4639366849E+01  0.2189474189E-16 -0.2635428130E+01  0.6472118279E+15  0.4622739966E+01  0.2189949708E-16 -0.2630420246E+01
  0.1600000000E+01  0.1000000000E+01  0.4000000000E+00  0.8670539547E+01  0.1615494106E-15 -0.5684469579E+01  0.6472118279E+15  0.8663323883E+01  0.1614958464E-15 -0.5678861400E+01
  0.1553011065E+01  0.1000000000E+01  0.4000000000E+00  0.7887597123E+01  0.1848728935E-15 -0.4745500221E+01  0.6472118279E+15  0.7880527612E+01  0.1851316204E-15 -0.4741041710E+01
  0.1457046303E+01  0.1000000000E+01  0.4000000000E+00  0.7097820421E+01  0.1695299204E-15 -0.4470582428E+01  0.6472118279E+15  0.7092488074E+01  0.1696231046E-15 -0.4467551948E+01
  0.1342953697E+01  0.1000000000E+01  0.4000000000E+00  0.5646404044E+01  0.1464668866E-15 -0.3142802880E+01  0.6472118279E+15  0.5639031142E+01  0.1460508055E-15 -0.3137700293E+01
  0.1246988935E+01  0.1000000000E+01  0.4000000000E+00  0.4679590464E+01  0.5321249946E-16 -0.3263625518E+01  0.6472118279E+15  0.4661284217E+01  0.5348992657E-16 -0.3253240556E+01
  0.1200000000E+01  0.1000000000E+01  0.4000000000E+00  0.4130287909E+01  0.2555383416E-16 -0.2885405034E+01  0.6472118279E+15  0.4114368202E+01  0.2555817917E-16 -0.2875159849E+01
ZONE I=6, J=6, K=1, F=POINT
  0.2000000000E+01  0.1000000000E+01  0.0000000000E+00  0.2402504776E+01  0.7369215012E-19  0.2123415779E+02  0.6472118278E+15  0.2430343131E+01  0.9419008767E-19  0.2215517731E+02
  0.1953011065E+01  0.1000000000E+01  0.0000000000E+00  0.1291040245E+01 -0.3736334007E-16 -0.1370975807E+00  0.6472118279E+15  0.1294374763E+01 -0.3608659848E-16 -0.1504232900E+00
  0.1857046303E+01  0.1000000000E+01  0.0000000000E+00 -0.3073581746E+00 -0.1885935492E-16  0.1517511669E+00  0.6472118279E+15 -0.3089826053E+00 -0.1939867611E-16  0.1503918124E+00
  0.1742953697E+01  0.1000000000E+01  0.0000000000E+00  0.1336164333E+00  0.2343895596E-18 -0.3773261356E-01  0.6472118279E+15  0.1334837021E+00  0.1283471785E-18 -0.3739513476E-01
  0.1646988935E+01  0.1000000000E+01  0.0000000000E+00 -0.1281202905E+00  0.3505078711E-18  0.6065021155E-01  0.6472118279E+15 -0.1285945671E+00  0.3159532826E-18  0.5965593031E-01
  0.1600000000E+01  0.1000000000E+01  0.0000000000E+00  0.8828884933E-01 -0.9669959331E-18 -0.8428409045E-01  0.6472118279E+15  0.8692847315E-01 -0.1093910475E-17 -0.8305925423E-01
  0.2000000000E+01  0.1000000000E+01  0.4698893521E-01 -0.1150683069E-01  0.7440516040E-18  0.4848229817E+02  0.6472118279E+15 -0.5417231010E-01  0.6858421160E-18  0.4865663202E+02
  0.1953011065E+01  0.1000000000E+01  0.4698893521E-01  0.1097223226E+02  0.1393273437E-15  0.1477036447E+01  0.6472118279E+15  0.1095736577E+02  0.1380706185E-15  0.1492890111E+01
  0.1857046303E+01  0.1000000000E+01  0.4698893521E-01  0.1171862737E+02  0.2980042262E-15 -0.1873031817E+01  0.6472118279E+15  0.1171706242E+02  0.2980288877E-15 -0.1870079590E+01
  0.1742953697E+01  0.1000000000E+01  0.4698893521E-01  0.5836022130E+01 -0.3139933625E-16 -0.6638617732E+00  0.6472118279E+15  0.5836710919E+01 -0.3104948444E-16 -0.6634398915E+00
  0.1646988935E+01  0.1000000000E+01  0.4698893521E-01  0.4452368404E+01 -0.1208115551E-15 -0.6549457010E+00  0.6472118279E+15  0.4447883401E+01 -0.1207744264E-15 -0.6497185389E+00
  0.1600000000E+01  0.1000000000E+01  0.4698893521E-01  0.2797098240E+01 -0.8676956089E-16  0.1897189938E+00  0.6472118279E+15  0.2802606581E+01 -0.8649567122E-16  0.1891090811E+00
  0.2000000000E+01  0.1000000000E+01  0.1429536967E+00 -0.2813634190E+00  0.2704584568E-17  0.5050284564E+02  0.6472118279E+15 -0.2568123789E+00  0.2735937502E-17  0.5043879478E+02
  0.1953011065E+01  0.1000000000E+01  0.1429536967E+00  0.2808570137E+01 -0.5136066673E-15  0.1647145011E+02  0.6472118279E+15  0.2789460496E+01 -0.5139963141E-15  0.1650659852E+02
  0.1857046303E+01  0.1000000000E+01  0.1429536967E+00  0.1278443733E+02 -0.2524339337E-15 -0.3560551296E+01  0.6472118279E+15  0.1277744373E+02 -0.2522718884E-15 -0.3553487027E+01
  0.1742953697E+01  0.1000000000E+01  0.1429536967E+00  0.9955508315E+01 -0.2884252888E-17 -0.4204689539E+01  0.6472118279E+15  0.9954021980E+01 -0.3602963378E-17 -0.4206088831E+01
  0.1646988935E+01  0.1000000000E+01  0.1429536967E+00  0.9115662706E+01 -0.1567224583E-15 -0.2234652063E+01  0.6472118279E+15  0.9108959659E+01 -0.1565077122E-15 -0.2231349104E+01
  0.1600000000E+01  0.1000000000E+01  0.1429536967E+00  0.5667541139E+01 -0.2846287539E-15 -0.1966811070E+01  0.6472118279E+15  0.5687174280E+01 -0.2852397120E-15 -0.1967480628E+01
  0.2000000000E+01  0.1000000000E+01  0.2570463033E+00  0.1897272153E-01  0.1089100839E-17  0.4987235964E+02  0.6472118279E+15  0.1815717640E-01  0.1039768744E-17  0.4987677072E+02