TITLE = "Generated from ../MESH/Convergence_0000000000.hmesh and Convergence_0000004900.hsol"
VARIABLES = "x","y","z","veloT_x","veloT_y","veloT_z","slr_4","velo_x","velo_y","velo_z"
ZONE I=6, J=6, K=1, F=POINT
  0.4000000000E+00  0.1000000000E+01  0.0000000000E+00 -0.1227557162E-01  0.2770185581E-19  0.8019546875E-02  0.6354472824E+15 -0.1148234647E-01  0.2810789838E-19  0.7579763804E-02
  0.3530110648E+00  0.1000000000E+01  0.0000000000E+00 -0.1778134914E-02  0.8601860823E-20 -0.3283174017E-03  0.6354472824E+15 -0.3167303326E-03  0.7615534049E-20 -0.2871439173E-03
  0.2570463033E+00  0.1000000000E+01  0.0000000000E+00 -0.5528323019E-03  0.1229010769E-20  0.2324610306E-02  0.6354472824E+15  0.1006551607E-02  0.8707026743E-21  0.2279322096E-02
  0.1429536967E+00  0.1000000000E+01  0.0000000000E+00 -0.1892839256E-02  0.3140051589E-21 -0.1233013390E-02  0.6354472824E+15 -0.1053608224E-03  0.2663465220E-21 -0.1220480606E-02
  0.4698893521E-01  0.1000000000E+01  0.0000000000E+00  0.1013191041E-02 -0.2602945653E-20  0.2078148762E-02  0.6354472824E+15  0.2503807425E-02 -0.2527831492E-20  0.1906211842E-02
  0.0000000000E+00  0.1000000000E+01  0.0000000000E+00 -0.7643438809E-02  0.1609421108E-22  0.2157015309E-02  0.6354472824E+15 -0.7488730166E-02  0.1423894462E-22  0.1957420099E-02
  0.4000000000E+00  0.1000000000E+01  0.4698893521E-01  0.2659585610E+00  0.3077098152E-17 -0.3769628310E-01  0.6354472824E+15  0.2672807518E+00  0.3070022879E-17 -0.4586343295E-01
  0.3530110648E+00  0.1000000000E+01  0.4698893521E-01  0.1240986437E+00  0.2797659584E-17  0.1833750442E-03  0.6354472824E+15  0.1263331251E+00  0.2783800220E-17 -0.8148261246E-02
  0.2570463033E+00  0.1000000000E+01  0.4698893521E-01  0.9554537151E-01  0.1145619803E-17 -0.9814600658E-02  0.6354472824E+15  0.9783113405E-01  0.1133165143E-17 -0.1629872777E-01
  0.1429536967E+00  0.1000000000E+01  0.4698893521E-01  0.6292166080E-03  0.3095685869E-18 -0.4007636926E-02  0.6354472824E+15  0.3141252383E-02  0.3136155243E-18 -0.8651128309E-02
  0.4698893521E-01  0.1000000000E+01  0.4698893521E-01 -0.5078893426E-02  0.6612553022E-19 -0.4429006553E-02  0.6354472824E+15 -0.2947170508E-02  0.6979140564E-19 -0.7360756272E-02
  0.0000000000E+00  0.1000000000E+01  0.4698893521E-01 -0.1823281732E-01  0.9391436550E-21  0.3241183811E-02  0.6354472824E+15 -0.1808317804E-01  0.9614977765E-21  0.1812837413E-02
  0.4000000000E+00  0.1000000000E+01  0.1429536967E+00  0.6017528101E+00  0.9890256173E-17 -0.1200262160E+00  0.6354472824E+15  0.6076822463E+00  0.9970851780E-17 -0.1122464054E+00
  0.3530110648E+00  0.1000000000E+01  0.1429536967E+00  0.3354768719E+00  0.6174785851E-17 -0.1565669444E+00  0.6354472824E+15  0.3404640118E+00  0.6145374472E-17 -0.1524926612E+00
  0.2570463033E+00  0.1000000000E+01  0.1429536967E+00  0.2335014379E+00  0.2593701998E-17 -0.9336406253E-01  0.6354472824E+15  0.2366299674E+00  0.2593544255E-17 -0.9549914214E-01
  0.1429536967E+00  0.1000000000E+01  0.1429536967E+00  0.3699415111E-01  0.1005903355E-17 -0.1047012555E+00  0.6354472824E+15  0.3828094464E-01  0.1003294441E-17 -0.1094557228E+00
  0.4698893521E-01  0.1000000000E+01  0.1429536967E+00 -0.6378254938E-02  0.2293913595E-18 -0.3972137188E-02  0.6354472824E+15 -0.6381981211E-02  0.2451945164E-18 -0.7208579720E-02
  0.0000000000E+00  0.1000000000E+01  0.1429536967E+00 -0.2136707370E-01  0.2226032028E-21 -0.6707521121E-04  0.6354472824E+15 -0.2141640180E-01  0.9782736227E-22 -0.1814159453E-02
  0.4000000000E+00  0.1000000000E+01  0.2570463033E+00  0.7140920451E+00  0.4107518320E-17 -0.3913029240E+00  0.6354472824E+15  0.7310270849E+00  0.4126945016E-17 -0.3661721758E+00
  0.3530110648E+00  0.1000000000E+01  0.2570463033E+00  0.5202608793E+00  0.3148982903E-17 -0.4333779547E+00  0.6354472824E+15  0.5379568711E+00  0.3433028860E-17 -0.4136425299E+00
  0.2570463033E+00  0.1000000000E+01  0.2570463033E+00  0.3168748555E+00  0.2327697706E-17 -0.3021514190E+00  0.6354472824E+15  0.3301093577E+00  0.2326743546E-17 -0.2941654050E+00
  0.1429536967E+00  0.1000000000E+01  0.2570463033E+00  0.9652527290E-01  0.1692362326E-17 -0.2802275777E+00  0.6354472824E+15  0.9989010399E-01  0.1692659595E-17 -0.2812571398E+00
  0.4698893521E-01  0.1000000000E+01  0.2570463033E+00  0.1243896398E-01  0.1150274755E-17 -0.4686792625E-01  0.6354472824E+15  0.1096099256E-01  0.1122134385E-17 -0.4903883883E-01
  0.0000000000E+00  0.1000000000E+01  0.2570463033E+00 -0.1416081239E-01 -0.4487537195E-20 -0.1582620027E-03  0.6354472824E+15 -0.1412137886E-01 -0.3766605117E-20 -0.1484155306E-02
  0.4000000000E+00  0.1000000000E+01  0.3530110648E+00  0.7736741661E+00  0.4661880512E-17 -0.6734230004E+00  0.6354472824E+15  0.8012302605E+00  0.4643361692E-17 -0.6485910948E+00
  0.3530110648E+00  0.1000000000E+01  0.3530110648E+00  0.5644459036E+00  0.4135980900E-17 -0.6818394554E+00  0.6354472824E+15  0.5919787749E+00  0.4138642887E-17 -0.6609562206E+00
  0.2570463033E+00  0.1000000000E+01  0.3530110648E+00  0.3389815212E+00  0.2304090529E-17 -0.5249352594E+00  0.6354472824E+15  0.3628776396E+00  0.2132670538E-17 -0.5129457858E+00
  0.1429536967E+00  0.1000000000E+01  0.3530110648E+00  0.1017521946E+00  0.2190863931E-17 -0.4281003082E+00  0.6354472824E+15  0.1105543174E+00  0.2186574150E-17 -0.4274868885E+00
  0.4698893521E-01  0.1000000000E+01  0.3530110648E+00  0.1533773065E-01  0.6400603645E-18 -0.1102759552E+00  0.6354472824E+15  0.1323161666E-01  0.6591054407E-18 -0.1123792463E+00
  0.0000000000E+00  0.1000000000E+01  0.3530110648E+00 -0.1430193145E-01  0.5253297281E-20 -0.2691379932E-03  0.6354472824E+15 -0.1426757458E-01  0.5747251055E-20 -0.1662081325E-02
  0.4000000000E+00  0.1000000000E+01  0.4000000000E+00  0.7670130932E+00  0.6777101136E-17 -0.8237416486E+00  0.6354472824E+15  0.7988450882E+00  0.6782660562E-17 -0.7957855096E+00
  0.3530110648E+00  0.1000000000E+01  0.4000000000E+00  0.6057177731E+00  0.5890823411E-17 -0.8204202449E+00  0.6354472824E+15  0.6367874993E+00  0.5817602413E-17 -0.7960987741E+00
  0.2570463033E+00  0.1000000000E+01  0.4000000000E+00  0.3454515630E+00  0.2466026358E-17 -0.6377815691E+00  0.6354472824E+15  0.3747123641E+00  0.2547228487E-17 -0.6230577747E+00
  0.1429536967E+00  0.1000000000E+01  0.4000000000E+00  0.1110910779E+00  0.2402504168E-17 -0.5011363773E+00  0.6354472824E+15  0.1234180285E+00  0.2402323853E-17 -0.4994085159E+00
  0.4698893521E-01  0.1000000000E+01  0.4000000000E+00  0.1208921155E-01  0.6463693278E-18 -0.1388604279E+00  0.6354472824E+15  0.9766106880E-02  0.6556752945E-18 -0.1407829170E+00
  0.0000000000E+00  0.1000000000E+01  0.4000000000E+00 -0.6420980958E-02  0.8632553203E-20 -0.1486390397E-02  0.6354472824E+15 -0.6271185497E-02  0.8084835936E-20 -0.3010934198E-02
ZONE I=6, J=6, K=1, F=POINT
  0.8000000000E+00  0.1000000000E+01  0.0000000000E+00  0.1793621022E-01 -0.8554360406E-19 -0.1091444422E-01  0.6354472824E+15  0.1845590208E-01 -0.8805050263E-19 -0.1099387992E-01
  0.7530110648E+00  0.1000000000E+01  0.0000000000E+00  0.2341535769E-02  0.8591779293E-19  0.6147189275E-02  0.6354472824E+15  0.2381007408E-02  0.8371770564E-19  0.6064368904E-02
  0.6570463033E+00  0.1000000000E+01  0.0000000000E+00 -0.8914942976E-04  0.2748975289E-19  0.3997980204E-03  0.6354472824E+15 -0.1832422452E-03  0.2537707968E-19  0.4126790346E-03
  0.5429536967E+00  0.1000000000E+01  0.0000000000E+00  0.1000254628E-02  0.3132386683E-19  0.7142881340E-02  0.6354472824E+15  0.1029327697E-02  0.2904079591E-19  0.7093139445E-02
  0.4469889352E+00  0.1000000000E+01  0.0000000000E+00 -0.1801302464E-02 -0.3362288063E-19  0.7403505608E-03  0.6354472824E+15 -0.1586525670E-02 -0.2971391407E-19  0.7436803981E-03
  0.4000000000E+00  0.1000000000E+01  0.0000000000E+00  0.1484535027E-01  0.3136908011E-19  0.7719517529E-02  0.6354472824E+15  0.1541439229E-01  0.3175495659E-19  0.7276433471E-02
  0.8000000000E+00  0.1000000000E+01  0.4698893521E-01  0.3387458210E+00 -0.2350660954E-16  0.1675790074E-01  0.6354472824E+15  0.3404305755E+00 -0.2352216123E-16  0.1251894164E-01
  0.7530110648E+00  0.1000000000E+01  0.4698893521E-01  0.5317716044E+00 -0.2295839864E-16 -0.4100045176E-01  0.6354472824E+15  0.5325022209E+00 -0.2299522017E-16 -0.4470139122E-01
  0.6570463033E+00  0.1000000000E+01  0.4698893521E-01  0.3092368384E+00 -0.4479622293E-17 -0.7264927735E-02  0.6354472824E+15  0.3094808481E+00 -0.4481726694E-17 -0.9897544376E-02
  0.5429536967E+00  0.1000000000E+01  0.4698893521E-01  0.3373754019E+00  0.4382108581E-17  0.2134644674E-02  0.6354472824E+15  0.3384603464E+00  0.4398619708E-17 -0.1208006711E-02
  0.4469889352E+00  0.1000000000E+01  0.4698893521E-01  0.2057285261E+00  0.4000793002E-17  0.6992839237E-02  0.6354472824E+15  0.2073732609E+00  0.3996193345E-17  0.1113602480E-03
  0.4000000000E+00  0.1000000000E+01  0.4698893521E-01  0.3077294315E+00  0.2837805570E-17 -0.3846743135E-01  0.6354472824E+15  0.3094563195E+00  0.2828238358E-17 -0.4661545363E-01
  0.8000000000E+00  0.1000000000E+01  0.1429536967E+00  0.1100546077E+01 -0.5356420959E-16 -0.3513935159E+00  0.6354472824E+15  0.1097988761E+01 -0.5362145099E-16 -0.3444783967E+00
  0.7530110648E+00  0.1000000000E+01  0.1429536967E+00  0.1387791664E+01 -0.3376533114E-16 -0.2060149750E+00  0.6354472824E+15  0.1384054631E+01 -0.3380953490E-16 -0.1955142237E+00
  0.6570463033E+00  0.1000000000E+01  0.1429536967E+00  0.9341574574E+00 -0.3457507585E-17 -0.2014244808E+00  0.6354472824E+15  0.9331807203E+00 -0.3405604941E-17 -0.1859612145E+00
  0.5429536967E+00  0.1000000000E+01  0.1429536967E+00  0.8541280306E+00  0.9839654993E-17 -0.5757263921E-01  0.6354472824E+15  0.8583894709E+00  0.9970402788E-17 -0.4383069292E-01
  0.4469889352E+00  0.1000000000E+01  0.1429536967E+00  0.5420161822E+00  0.9721855697E-17 -0.1420998841E+00  0.6354472824E+15  0.5476488852E+00  0.9635719564E-17 -0.1320843762E+00
  0.4000000000E+00  0.1000000000E+01  0.1429536967E+00  0.6532903003E+00  0.1060179519E-16 -0.1194647875E+00  0.6354472824E+15  0.6583937698E+00  0.1067385862E-16 -0.1116981816E+00
  0.8000000000E+00  0.1000000000E+01  0.2570463033E+00  0.2161487583E+01 -0.1287854834E-16 -0.9372811103E+00  0.6354472824E+15  0.2151444696E+01 -0.1289071878E-16 -0.9053254539E+00
  0.7530110648E+00  0.1000000000E+01  0.2570463033E+00  0.2024402804E+01 -0.8929022092E-17 -0.6794763990E+00  0.6354472824E+15  0.2012225185E+01 -0.8374063073E-17 -0.6445526721E+00
  0.6570463033E+00  0.1000000000E+01  0.2570463033E+00  0.1528474474E+01 -0.3259031379E-17 -0.6081474878E+00  0.6354472824E+15  0.1525427729E+01 -0.3179968145E-17 -0.5701072936E+00
  0.5429536967E+00  0.1000000000E+01  0.2570463033E+00  0.1161726286E+01  0.3204342553E-17 -0.3413477000E+00  0.6354472824E+15  0.1170343293E+01  0.3335400325E-17 -0.3042525398E+00
  0.4469889352E+00  0.1000000000E+01  0.2570463033E+00  0.8106580881E+00  0.4118402036E-17 -0.4405553116E+00  0.6354472824E+15  0.8235955245E+00  0.4500040826E-17 -0.4101119595E+00
  0.4000000000E+00  0.1000000000E+01  0.2570463033E+00  0.7454036371E+00  0.4134151808E-17 -0.3906427448E+00  0.6354472824E+15  0.7614081844E+00  0.4153633521E-17 -0.3655643647E+00
  0.8000000000E+00  0.1000000000E+01  0.3530110648E+00  0.2421227669E+01  0.2166056845E-17 -0.1462274782E+01  0.6354472824E+15  0.2404247554E+01  0.2169292219E-17 -0.1424208347E+01
  0.7530110648E+00  0.1000000000E+01  0.3530110648E+00  0.2301955799E+01  0.6378657727E-17 -0.1229770292E+01  0.6354472824E+15  0.2288896429E+01  0.5657760172E-17 -0.1191037003E+01
  0.6570463033E+00  0.1000000000E+01  0.3530110648E+00  0.1753729027E+01 -0.2811646245E-18 -0.1022438842E+01  0.6354472824E+15  0.1749719805E+01 -0.6662789684E-18 -0.9853542910E+00
  0.5429536967E+00  0.1000000000E+01  0.3530110648E+00  0.1305304725E+01 -0.1150336122E-17 -0.6969158313E+00  0.6354472824E+15  0.1317198377E+01 -0.2187430792E-17 -0.6591071118E+00
  0.4469889352E+00  0.1000000000E+01  0.3530110648E+00  0.8665747568E+00  0.4243255019E-17 -0.7236309166E+00  0.6354472824E+15  0.8915532081E+00  0.4037433203E-17 -0.6929900205E+00
  0.4000000000E+00  0.1000000000E+01  0.3530110648E+00  0.8072121692E+00  0.4637951326E-17 -0.6732258786E+00  0.6354472824E+15  0.8342807802E+00  0.4614914547E-17 -0.6483809544E+00
  0.8000000000E+00  0.1000000000E+01  0.4000000000E+00  0.2528171872E+01 -0.3500799329E-17 -0.1759030027E+01  0.6354472824E+15  0.2508915040E+01 -0.3491784963E-17 -0.1729663846E+01
  0.7530110648E+00  0.1000000000E+01  0.4000000000E+00  0.2276940675E+01 -0.4460647297E-18 -0.1465239573E+01  0.6354472824E+15  0.2264644636E+01 -0.6384733203E-18 -0.1435355892E+01
  0.6570463033E+00  0.1000000000E+01  0.4000000000E+00  0.1775599492E+01  0.9549143206E-18 -0.1246912157E+01  0.6354472824E+15  0.1771715414E+01  0.1122834291E-17 -0.1216878741E+01
  0.5429536967E+00  0.1000000000E+01  0.4000000000E+00  0.1304719500E+01  0.7663695107E-17 -0.9260993388E+00  0.6354472824E+15  0.1316880521E+01  0.8171276367E-17 -0.8953243079E+00
  0.4469889352E+00  0.1000000000E+01  0.4000000000E+00  0.9323045946E+00  0.7577331281E-17 -0.8996478434E+00  0.6354472824E+15  0.9612049630E+00  0.8141982304E-17 -0.8694724737E+00
  0.4000000000E+00  0.1000000000E+01  0.4000000000E+00  0.7788160964E+00  0.6800751672E-17 -0.8229726587E+00  0.6354472824E+15  0.8104320583E+00  0.6802420368E-17 -0.7950766130E+00
ZONE I=6, J=6, K=1, F=POINT
  0.1200000000E+01  0.1000000000E+01  0.0000000000E+00 -0.3165968944E-01  0.5625864878E-19  0.3674641964E-01  0.6354472824E+15 -0.3026387318E-01  0.5859571746E-19  0.3688288762E-01
  0.1153011065E+01  0.1000000000E+01  0.0000000000E+00 -0.5101412450E-02 -0.2300936989E-18 -0.9627895615E-02  0.6354472824E+15 -0.3481098243E-02 -0.1563557418E-18 -0.9555385804E-02
  0.1057046303E+01  0.1000000000E+01  0.0000000000E+00  0.2024862014E-02  0.1608227496E-19  0.5799995921E-02  0.6354472824E+15  0.3661624980E-02  0.5726217023E-19  0.5842433524E-02
  0.9429536967E+00  0.1000000000E+01  0.0000000000E+00 -0.2420529736E-02  0.2188275799E-20 -0.8319422091E-02  0.6354472824E+15 -0.8492702116E-03  0.2099015697E-20 -0.8195080872E-02
  0.8469889352E+00  0.1000000000E+01  0.0000000000E+00  0.3158920127E-02 -0.2253727696E-19  0.5580958139E-02  0.6354472824E+15  0.4504234118E-02 -0.2494671754E-19  0.5545675945E-02
  0.8000000000E+00  0.1000000000E+01  0.0000000000E+00 -0.2721006350E-01 -0.9525416239E-19 -0.1037792848E-01  0.6354472824E+15 -0.2652110700E-01 -0.9788943503E-19 -0.1048075955E-01
  0.1200000000E+01  0.1000000000E+01  0.4698893521E-01  0.2221708620E+01 -0.4194998253E-16 -0.1929787231E+00  0.6354472824E+15  0.2227012484E+01 -0.4216115409E-16 -0.2019306821E+00
  0.1153011065E+01  0.1000000000E+01  0.4698893521E-01  0.1529275204E+01 -0.2617262386E-16 -0.4762388923E-01  0.6354472824E+15  0.1534033485E+01 -0.2630920725E-16 -0.5576825721E-01
  0.1057046303E+01  0.1000000000E+01  0.4698893521E-01  0.1385500718E+01 -0.1235464862E-16 -0.8470502445E-01  0.6354472824E+15  0.1389856290E+01 -0.1231283157E-16 -0.9207097041E-01
  0.9429536967E+00  0.1000000000E+01  0.4698893521E-01  0.7720589094E+00 -0.1459121567E-16 -0.7218000417E-01  0.6354472824E+15  0.7760397092E+00 -0.1470039745E-16 -0.7904041879E-01
  0.8469889352E+00  0.1000000000E+01  0.4698893521E-01  0.6678553085E+00 -0.2750813349E-16 -0.7017550910E-01  0.6354472824E+15  0.6706675543E+00 -0.2762787765E-16 -0.7546780058E-01
  0.8000000000E+00  0.1000000000E+01  0.4698893521E-01  0.2770218822E+00 -0.2279952807E-16  0.1881599136E-01  0.6354472824E+15  0.2793257345E+00 -0.2282721936E-16  0.1453439519E-01
  0.1200000000E+01  0.1000000000E+01  0.1429536967E+00  0.5158512756E+01 -0.5825853390E-16 -0.6264282869E+00  0.6354472824E+15  0.5167270374E+01 -0.5836156096E-16 -0.6328932831E+00
  0.1153011065E+01  0.1000000000E+01  0.1429536967E+00  0.3700861449E+01 -0.6779972479E-16 -0.8329866957E+00  0.6354472824E+15  0.3704822410E+01 -0.6758484479E-16 -0.8391147078E+00
  0.1057046303E+01  0.1000000000E+01  0.1429536967E+00  0.3299915592E+01 -0.3855933012E-16 -0.6154415997E+00  0.6354472824E+15  0.3302310766E+01 -0.3857189996E-16 -0.6191935957E+00
  0.9429536967E+00  0.1000000000E+01  0.1429536967E+00  0.2027488831E+01 -0.3410311374E-16 -0.7207926991E+00  0.6354472824E+15  0.2029462649E+01 -0.3409653554E-16 -0.7191905295E+00
  0.8469889352E+00  0.1000000000E+01  0.1429536967E+00  0.1736760711E+01 -0.5008377847E-16 -0.3717843260E+00  0.6354472824E+15  0.1737060166E+01 -0.5011448025E-16 -0.3667812324E+00
  0.8000000000E+00  0.1000000000E+01  0.1429536967E+00  0.1016624674E+01 -0.5578648671E-16 -0.3530231543E+00  0.6354472824E+15  0.1016134019E+01 -0.5584556875E-16 -0.3460772676E+00
  0.1200000000E+01  0.1000000000E+01  0.2570463033E+00  0.5451822682E+01 -0.6140194611E-17 -0.1772757612E+01  0.6354472824E+15  0.5455092660E+01 -0.6080324478E-17 -0.1766698994E+01
  0.1153011065E+01  0.1000000000E+01  0.2570463033E+00  0.4911253265E+01 -0.3810040279E-16 -0.2016833916E+01  0.6354472824E+15  0.4914880745E+01 -0.3833239953E-16 -0.2011651092E+01
  0.1057046303E+01  0.1000000000E+01  0.2570463033E+00  0.4066800900E+01 -0.3162558866E-16 -0.1612762529E+01  0.6354472824E+15  0.4064064283E+01 -0.3163797940E-16 -0.1605863290E+01
  0.9429536967E+00  0.1000000000E+01  0.2570463033E+00  0.3086133506E+01 -0.3018955256E-16 -0.1655323462E+01  0.6354472824E+15  0.3079063944E+01 -0.2979490320E-16 -0.1638838190E+01
  0.8469889352E+00  0.1000000000E+01  0.2570463033E+00  0.2527307290E+01 -0.1442623314E-16 -0.1017451318E+01  0.6354472824E+15  0.2520483306E+01 -0.1430644095E-16 -0.9899674122E+00
  0.8000000000E+00  0.1000000000E+01  0.2570463033E+00  0.2124107872E+01 -0.1303519893E-16 -0.9398424797E+00  0.6354472824E+15  0.2114865645E+01 -0.1303158408E-16 -0.9075045987E+00
  0.1200000000E+01  0.1000000000E+01  0.3530110648E+00  0.5749416500E+01  0.3325653282E-16 -0.2924510736E+01  0.6354472824E+15  0.5754005053E+01  0.3328281983E-16 -0.2915881778E+01
  0.1153011065E+01  0.1000000000E+01  0.3530110648E+00  0.5016468846E+01  0.1373632146E-16 -0.2849084427E+01  0.6354472824E+15  0.5019261557E+01  0.1372085107E-16 -0.2839638086E+01
  0.1057046303E+01  0.1000000000E+01  0.3530110648E+00  0.4289901505E+01 -0.7365296694E-17 -0.2472751302E+01  0.6354472824E+15  0.4283606506E+01 -0.7540319493E-17 -0.2459586067E+01
  0.9429536967E+00  0.1000000000E+01  0.3530110648E+00  0.3339124442E+01 -0.1428370838E-16 -0.2264193926E+01  0.6354472824E+15  0.3320769228E+01 -0.1382692686E-16 -0.2244441089E+01
  0.8469889352E+00  0.1000000000E+01  0.3530110648E+00  0.2853602867E+01 -0.1085100158E-17 -0.1654804250E+01  0.6354472824E+15  0.2833643232E+01 -0.1950478625E-17 -0.1621822667E+01
  0.8000000000E+00  0.1000000000E+01  0.3530110648E+00  0.2374105313E+01  0.2218267282E-17 -0.1462559431E+01  0.6354472824E+15  0.2358926992E+01  0.2231708145E-17 -0.1424521351E+01
  0.1200000000E+01  0.1000000000E+01  0.4000000000E+00  0.5467389582E+01  0.3931062013E-16 -0.3226581059E+01  0.6354472824E+15  0.5471976651E+01  0.3932099511E-16 -0.3218566642E+01
  0.1153011065E+01  0.1000000000E+01  0.4000000000E+00  0.5098944346E+01  0.3011297934E-16 -0.3341946257E+01  0.6354472824E+15  0.5098569780E+01  0.3002219050E-16 -0.3332046245E+01
  0.1057046303E+01  0.1000000000E+01  0.4000000000E+00  0.4235551779E+01  0.4376052871E-17 -0.2846871791E+01  0.6354472824E+15  0.4227463800E+01  0.4395171848E-17 -0.2829903411E+01
  0.9429536967E+00  0.1000000000E+01  0.4000000000E+00  0.3410639153E+01 -0.1275101513E-16 -0.2610448213E+01  0.6354472824E+15  0.3388836258E+01 -0.1220282558E-16 -0.2589621951E+01
  0.8469889352E+00  0.1000000000E+01  0.4000000000E+00  0.2815156235E+01 -0.8243813185E-17 -0.1917822465E+01  0.6354472824E+15  0.2789683665E+01 -0.8482033349E-17 -0.1891173573E+01
  0.8000000000E+00  0.1000000000E+01  0.4000000000E+00  0.2523778282E+01 -0.3480781504E-17 -0.1762402189E+01  0.6354472824E+15  0.2506259697E+01 -0.3468375687E-17 -0.1732640545E+01
ZONE I=6, J=6, K=1, F=POINT
  0.1600000000E+01  0.1000000000E+01  0.0000000000E+00  0.1308924139E+00 -0.9253466255E-18 -0.7227633349E-01  0.6354472824E+15  0.1309769653E+00 -0.1042297567E-17 -0.7179455637E-01
  0.1553011065E+01  0.1000000000E+01  0.0000000000E+00  0.1075406781E-01 -0.1328900385E-17  0.4508151488E-01  0.6354472824E+15  0.1141414604E-01 -0.1387906866E-17  0.4507068644E-01
  0.1457046303E+01  0.1000000000E+01  0.0000000000E+00 -0.7090275774E-02 -0.9987062339E-19 -0.3316243111E-02  0.6354472824E+15 -0.6235448448E-02 -0.1380595630E-18 -0.3239554895E-02
  0.1342953697E+01  0.1000000000E+01  0.0000000000E+00  0.5551037395E-02  0.4171599077E-18  0.2971860460E-01  0.6354472824E+15  0.6557478746E-02  0.4740899407E-18  0.2965493651E-01
  0.1246988935E+01  0.1000000000E+01  0.0000000000E+00 -0.7506563512E-02  0.1346245931E-18 -0.8320121592E-02  0.6354472824E+15 -0.6335348094E-02  0.1404262114E-18 -0.8256529242E-02
  0.1200000000E+01  0.1000000000E+01  0.0000000000E+00  0.5758953054E-01  0.6032721004E-19  0.3677462676E-01  0.6354472824E+15  0.5902688188E-01  0.6313523523E-19  0.3692278526E-01
  0.1600000000E+01  0.1000000000E+01  0.4698893521E-01  0.2997210604E+01 -0.8782152221E-16  0.2171501108E+00  0.6354472824E+15  0.2997785276E+01 -0.8784384428E-16  0.2099651497E+00
  0.1553011065E+01  0.1000000000E+01  0.4698893521E-01  0.3494879414E+01 -0.4369691780E-16 -0.2831318117E+00  0.6354472824E+15  0.3497805232E+01 -0.4359765387E-16 -0.2892852252E+00
  0.1457046303E+01  0.1000000000E+01  0.4698893521E-01  0.2531406174E+01 -0.4213474557E-17 -0.8865811082E-01  0.6354472824E+15  0.2536000715E+01 -0.4356493630E-17 -0.9347053101E-01
  0.1342953697E+01  0.1000000000E+01  0.4698893521E-01  0.2532352699E+01  0.2859821484E-16 -0.5629822195E-01  0.6354472824E+15  0.2537397818E+01  0.2863695908E-16 -0.6296389721E-01
  0.1246988935E+01  0.1000000000E+01  0.4698893521E-01  0.1954775477E+01 -0.7238762130E-17 -0.1935659855E-01  0.6354472824E+15  0.1959653630E+01 -0.7017192851E-17 -0.2769656348E-01
  0.1200000000E+01  0.1000000000E+01  0.4698893521E-01  0.2320302156E+01 -0.4617130577E-16 -0.1986584255E+00  0.6354472824E+15  0.2323441392E+01 -0.4634992758E-16 -0.2072430335E+00
  0.1600000000E+01  0.1000000000E+01  0.1429536967E+00  0.6368344439E+01 -0.2661866331E-15 -0.1799815322E+01  0.6354472824E+15  0.6351035904E+01 -0.2662309408E-15 -0.1800734331E+01
  0.1553011065E+01  0.1000000000E+01  0.1429536967E+00  0.8060636051E+01 -0.1410785025E-15 -0.9621323214E+00  0.6354472824E+15  0.8061175353E+01 -0.1412645385E-15 -0.9624152263E+00
  0.1457046303E+01  0.1000000000E+01  0.1429536967E+00  0.6011802426E+01  0.3130024799E-16 -0.9376350005E+00  0.6354472824E+15  0.6018700111E+01  0.3154742387E-16 -0.9398971953E+00
  0.1342953697E+01  0.1000000000E+01  0.1429536967E+00  0.5973818013E+01  0.1002801056E-15 -0.2122607187E+00  0.6354472824E+15  0.5981416549E+01  0.1005722504E-15 -0.2186360822E+00
  0.1246988935E+01  0.1000000000E+01  0.1429536967E+00  0.4605613712E+01  0.2703320784E-16 -0.7566334670E+00  0.6354472824E+15  0.4611734405E+01  0.2676112387E-16 -0.7633020918E+00
  0.1200000000E+01  0.1000000000E+01  0.1429536967E+00  0.5325476377E+01 -0.6243541645E-16 -0.6209660927E+00  0.6354472824E+15  0.5323867267E+01 -0.6242931124E-16 -0.6281484261E+00
  0.1600000000E+01  0.1000000000E+01  0.2570463033E+00  0.1129727611E+02  0.1046463381E-15 -0.3638118311E+01  0.6354472824E+15  0.1130387566E+02  0.1045865115E-15 -0.3622610030E+01
  0.1553011065E+01  0.1000000000E+01  0.2570463033E+00  0.1021018953E+02  0.1275418555E-15 -0.2553314044E+01  0.6354472824E+15  0.1021812086E+02  0.1276908489E-15 -0.2535589945E+01
  0.1457046303E+01  0.1000000000E+01  0.2570463033E+00  0.8831478677E+01  0.1853757737E-15 -0.2424007897E+01  0.6354472824E+15  0.8845425715E+01  0.1860690838E-15 -0.2414396543E+01
  0.1342953697E+01  0.1000000000E+01  0.2570463033E+00  0.7189632773E+01  0.1326619200E-15 -0.1272462141E+01  0.6354472824E+15  0.7201235436E+01  0.1333035360E-15 -0.1268681781E+01
  0.1246988935E+01  0.1000000000E+01  0.2570463033E+00  0.5930210417E+01  0.4260905004E-16 -0.2005529371E+01  0.6354472824E+15  0.5934146724E+01  0.4286839055E-16 -0.2000320131E+01
  0.1200000000E+01  0.1000000000E+01  0.2570463033E+00  0.5491272436E+01 -0.6418935655E-17 -0.1763259557E+01  0.6354472824E+15  0.5494359290E+01 -0.6349879588E-17 -0.1759910545E+01
  0.1600000000E+01  0.1000000000E+01  0.3530110648E+00  0.9770528365E+01  0.2078109260E-15 -0.4155989603E+01  0.6354472824E+15  0.9771507981E+01  0.2077126833E-15 -0.4133563491E+01
  0.1553011065E+01  0.1000000000E+01  0.3530110648E+00  0.9937949903E+01  0.2121213243E-15 -0.4082590597E+01  0.6354472824E+15  0.9952572911E+01  0.2122038810E-15 -0.4063309108E+01
  0.1457046303E+01  0.1000000000E+01  0.3530110648E+00  0.8693018573E+01  0.1994878010E-15 -0.3660905567E+01  0.6354472824E+15  0.8714255767E+01  0.2005033785E-15 -0.3647475295E+01
  0.1342953697E+01  0.1000000000E+01  0.3530110648E+00  0.7383649244E+01  0.1511060364E-15 -0.2836100931E+01  0.6354472824E+15  0.7396767104E+01  0.1514198206E-15 -0.2825003923E+01
  0.1246988935E+01  0.1000000000E+01  0.3530110648E+00  0.5954192068E+01  0.6519994979E-16 -0.2989324417E+01  0.6354472824E+15  0.5958358595E+01  0.6508858938E-16 -0.2979586338E+01
  0.1200000000E+01  0.1000000000E+01  0.3530110648E+00  0.5826962711E+01  0.3337252735E-16 -0.2924946287E+01  0.6354472824E+15  0.5827543841E+01  0.3337050767E-16 -0.2916010818E+01
  0.1600000000E+01  0.1000000000E+01  0.4000000000E+00  0.9940544857E+01  0.2097799243E-15 -0.4878297127E+01  0.6354472824E+15  0.9946583662E+01  0.2096942565E-15 -0.4874077545E+01
  0.1553011065E+01  0.1000000000E+01  0.4000000000E+00  0.9252007302E+01  0.2253410277E-15 -0.4122687227E+01  0.6354472824E+15  0.9270341142E+01  0.2251773249E-15 -0.4116329287E+01
  0.1457046303E+01  0.1000000000E+01  0.4000000000E+00  0.8579491080E+01  0.1949043810E-15 -0.4222741702E+01  0.6354472824E+15  0.8599956898E+01  0.1949129233E-15 -0.4212796036E+01
  0.1342953697E+01  0.1000000000E+01  0.4000000000E+00  0.7117496887E+01  0.1588755739E-15 -0.3259353832E+01  0.6354472824E+15  0.7132409430E+01  0.1597092014E-15 -0.3246860483E+01
  0.1246988935E+01  0.1000000000E+01  0.4000000000E+00  0.6055316930E+01  0.6584990564E-16 -0.3557896077E+01  0.6354472824E+15  0.6060190064E+01  0.6582822685E-16 -0.3548252347E+01
  0.1200000000E+01  0.1000000000E+01  0.4000000000E+00  0.5441100924E+01  0.3956560620E-16 -0.3214568239E+01  0.6354472824E+15  0.5445536181E+01  0.3956347716E-16 -0.3209238637E+01
ZONE I=6, J=6, K=1, F=POINT
  0.2000000000E+01  0.1000000000E+01  0.0000000000E+00  0.2402068150E+01  0.7379406773E-19  0.2123381453E+02  0.6354472824E+15  0.2430048515E+01  0.9465405271E-19  0.2215513642E+02
  0.1953011065E+01  0.1000000000E+01  0.0000000000E+00  0.1291921622E+01 -0.3734189217E-16 -0.1377042234E+00  0.6354472824E+15  0.1296873405E+01 -0.3610326974E-16 -0.1506537840E+00
  0.1857046303E+01  0.1000000000E+01  0.0000000000E+00 -0.3064421060E+00 -0.1878619673E-16  0.1519783231E+00  0.6354472824E+15 -0.3060969275E+00 -0.1922894043E-16  0.1504509175E+00
  0.1742953697E+01  0.1000000000E+01  0.0000000000E+00  0.1346832081E+00  0.2190912396E-18 -0.3720350613E-01  0.6354472824E+15  0.1360474661E+00  0.1120765056E-18 -0.3684031943E-01
  0.1646988935E+01  0.1000000000E+01  0.0000000000E+00 -0.1267871752E+00  0.3176203676E-18  0.6047022746E-01  0.6354472824E+15 -0.1255931094E+00  0.2839838931E-18  0.5969186508E-01
  0.1600000000E+01  0.1000000000E+01  0.0000000000E+00  0.8887425241E-01 -0.1004534544E-17 -0.8436264861E-01  0.6354472824E+15  0.8910139416E-01 -0.1123352729E-17 -0.8248688168E-01
  0.2000000000E+01  0.1000000000E+01  0.4698893521E-01 -0.1259567590E-01  0.7475203021E-18  0.4848285969E+02  0.6354472824E+15 -0.5516223353E-01  0.6873756428E-18  0.4865873383E+02
  0.1953011065E+01  0.1000000000E+01  0.4698893521E-01  0.1095382112E+02  0.1359100354E-15  0.1459675229E+01  0.6354472824E+15  0.1094618663E+02  0.1347462152E-15  0.1480454386E+01
  0.1857046303E+01  0.1000000000E+01  0.4698893521E-01  0.1162377902E+02  0.2878049560E-15 -0.1895789517E+01  0.6354472824E+15  0.1163176481E+02  0.2885046675E-15 -0.1893691037E+01
  0.1742953697E+01  0.1000000000E+01  0.4698893521E-01  0.5740994663E+01 -0.4090957819E-16 -0.6503868927E+00  0.6354472824E+15  0.5749688004E+01 -0.4058650351E-16 -0.6594061733E+00
  0.1646988935E+01  0.1000000000E+01  0.4698893521E-01  0.4458263136E+01 -0.1216210547E-15 -0.6387518803E+00  0.6354472824E+15  0.4460915338E+01 -0.1219505278E-15 -0.6460136718E+00
  0.1600000000E+01  0.1000000000E+01  0.4698893521E-01  0.2832958142E+01 -0.8496982543E-16  0.2029813558E+00  0.6354472824E+15  0.2843350563E+01 -0.8482216226E-16  0.1905028588E+00
  0.2000000000E+01  0.1000000000E+01  0.1429536967E+00 -0.2817647116E+00  0.2733383363E-17  0.5050328152E+02  0.6354472824E+15 -0.2575087215E+00  0.2747721346E-17  0.5044108763E+02
  0.1953011065E+01  0.1000000000E+01  0.1429536967E+00  0.2782972321E+01 -0.5126365788E-15  0.1637245863E+02  0.6354472824E+15  0.2774444622E+01 -0.5120487384E-15  0.1641306730E+02
  0.1857046303E+01  0.1000000000E+01  0.1429536967E+00  0.1269786903E+02 -0.2613918794E-15 -0.3637512239E+01  0.6354472824E+15  0.1270794623E+02 -0.2622229270E-15 -0.3628748221E+01
  0.1742953697E+01  0.1000000000E+01  0.1429536967E+00  0.9980953333E+01 -0.2765405850E-16 -0.4073190836E+01  0.6354472824E+15  0.9992464539E+01 -0.2704361013E-16 -0.4078052569E+01
  0.1646988935E+01  0.1000000000E+01  0.1429536967E+00  0.9349908646E+01 -0.1597095399E-15 -0.2057462855E+01  0.6354472824E+15  0.9350872552E+01 -0.1594411280E-15 -0.2058506813E+01
  0.1600000000E+01  0.1000000000E+01  0.1429536967E+00  0.5995990060E+01 -0.2828082047E-15 -0.1799931516E+01  0.6354472824E+15  0.6019518403E+01 -0.2831636366E-15 -0.1805361261E+01
  0.2000000000E+01  0.1000000000E+01  0.2570463033E+00  0.1914836156E-01  0.1124164746E-17  0.4987331013E+02  0.6354472824E+15  0.1815076351E-01  0.1086461964E-17  0.4987836034E+02