TITLE = "Generated from ../MESH/Convergence_0000000000.hmesh and Convergence_0000007700.hsol"
VARIABLES = "x","y","z","veloT_x","veloT_y","veloT_z","slr_4","velo_x","velo_y","velo_z"
ZONE I=6, J=6, K=1, F=POINT
  0.4000000000E+00  0.1000000000E+01  0.0000000000E+00 -0.2081834767E-01  0.2632926201E-19  0.7168679570E-02  0.6995563870E+15 -0.2396853838E-01  0.2126720136E-19  0.7656384046E-02
  0.3530110648E+00  0.1000000000E+01  0.0000000000E+00 -0.1104625037E-01  0.1308062327E-19 -0.2563232977E-03  0.6995563870E+15 -0.1288651934E-01  0.1174071410E-19 -0.2174417044E-04
  0.2570463033E+00  0.1000000000E+01  0.0000000000E+00 -0.8330097690E-02  0.3801744685E-20  0.2578100185E-02  0.6995563870E+15 -0.8755171766E-02  0.2682013668E-20  0.2767912958E-02
  0.1429536967E+00  0.1000000000E+01  0.0000000000E+00 -0.9007718667E-02  0.1160708984E-20 -0.1002658906E-02  0.6995563870E+15 -0.8535870700E-02  0.1038380388E-20 -0.1067936220E-02
  0.4698893521E-01  0.1000000000E+01  0.0000000000E+00 -0.4274213916E-02 -0.2417362225E-20  0.2667296546E-02  0.6995563870E+15 -0.3951316443E-02 -0.3141060838E-20  0.2998057509E-02
  0.0000000000E+00  0.1000000000E+01  0.0000000000E+00 -0.8141880436E-02  0.1750558730E-22  0.2694871279E-02  0.6995563870E+15 -0.8373556008E-02  0.2944819568E-22  0.2898911458E-02
  0.4000000000E+00  0.1000000000E+01  0.4698893521E-01  0.2706142399E+00  0.3494761147E-17 -0.1331514780E+00  0.6995563870E+15  0.2418160134E+00  0.3658500477E-17 -0.9598638259E-01
  0.3530110648E+00  0.1000000000E+01  0.4698893521E-01  0.1204639457E+00  0.3343264437E-17 -0.8382907343E-01  0.6995563870E+15  0.9753667928E-01  0.3540390398E-17 -0.4670082642E-01
  0.2570463033E+00  0.1000000000E+01  0.4698893521E-01  0.8545965584E-01  0.1304582339E-17 -0.6877336986E-01  0.6995563870E+15  0.6954625300E-01  0.1371659622E-17 -0.3760271634E-01
  0.1429536967E+00  0.1000000000E+01  0.4698893521E-01 -0.1324368194E-01  0.3765908305E-18 -0.3324539910E-01  0.6995563870E+15 -0.2566171889E-01  0.3598138658E-18 -0.6355948577E-02
  0.4698893521E-01  0.1000000000E+01  0.4698893521E-01 -0.1388709749E-01  0.1023608220E-18 -0.7675635602E-02  0.6995563870E+15 -0.2147037332E-01  0.8457181356E-19  0.7983160692E-02
  0.0000000000E+00  0.1000000000E+01  0.4698893521E-01 -0.1875825733E-01  0.1161977851E-20  0.8145937349E-02  0.6995563870E+15 -0.1911186843E-01  0.1402677602E-20  0.8067603978E-02
  0.4000000000E+00  0.1000000000E+01  0.1429536967E+00  0.6247293886E+00  0.1047445956E-16 -0.2550338377E+00  0.6995563870E+15  0.5900725190E+00  0.1002596872E-16 -0.2239662141E+00
  0.3530110648E+00  0.1000000000E+01  0.1429536967E+00  0.3340229717E+00  0.7729386265E-17 -0.2792854669E+00  0.6995563870E+15  0.3168415239E+00  0.7527920954E-17 -0.2479076369E+00
  0.2570463033E+00  0.1000000000E+01  0.1429536967E+00  0.2088733173E+00  0.3144022502E-17 -0.1846943918E+00  0.6995563870E+15  0.1943033577E+00  0.3160207507E-17 -0.1540529031E+00
  0.1429536967E+00  0.1000000000E+01  0.1429536967E+00 -0.9549176488E-02  0.1314535702E-17 -0.1492371325E+00  0.6995563870E+15 -0.1442114644E-01  0.1331825123E-17 -0.1193662667E+00
  0.4698893521E-01  0.1000000000E+01  0.1429536967E+00 -0.4381228284E-01  0.3657940796E-18 -0.6570452935E-02  0.6995563870E+15 -0.3442100318E-01  0.2890723673E-18  0.8966510042E-02
  0.0000000000E+00  0.1000000000E+01  0.1429536967E+00 -0.2130346543E-01  0.1021174483E-20  0.5598093546E-02  0.6995563870E+15 -0.2108912801E-01  0.2264745389E-20  0.4629310271E-02
  0.4000000000E+00  0.1000000000E+01  0.2570463033E+00  0.7824541658E+00  0.5404602166E-17 -0.5655279401E+00  0.6995563870E+15  0.7226503420E+00  0.5346893005E-17 -0.5556917475E+00
  0.3530110648E+00  0.1000000000E+01  0.2570463033E+00  0.5491961665E+00  0.3026117550E-17 -0.5882222080E+00  0.6995563870E+15  0.5220315584E+00  0.3373194962E-17 -0.5642870257E+00
  0.2570463033E+00  0.1000000000E+01  0.2570463033E+00  0.2917634437E+00  0.3103111946E-17 -0.4136505995E+00  0.6995563870E+15  0.2742858199E+00  0.3093254737E-17 -0.3825093501E+00
  0.1429536967E+00  0.1000000000E+01  0.2570463033E+00  0.1323580850E-01  0.2110598137E-17 -0.3275355746E+00  0.6995563870E+15  0.1937617861E-01  0.2104013475E-17 -0.3047110565E+00
  0.4698893521E-01  0.1000000000E+01  0.2570463033E+00 -0.5762254490E-01  0.1317070558E-17 -0.4638207372E-01  0.6995563870E+15 -0.3081948932E-01  0.1402615493E-17 -0.3969303873E-01
  0.0000000000E+00  0.1000000000E+01  0.2570463033E+00 -0.1425123614E-01 -0.6226529349E-20  0.4329671652E-02  0.6995563870E+15 -0.1405407809E-01 -0.7072895169E-20  0.1617466122E-02
  0.4000000000E+00  0.1000000000E+01  0.3530110648E+00  0.8584383134E+00  0.5547274193E-17 -0.9747609665E+00  0.6995563870E+15  0.7572696628E+00  0.5607585828E-17 -0.9075335788E+00
  0.3530110648E+00  0.1000000000E+01  0.3530110648E+00  0.6052861324E+00  0.4784677795E-17 -0.9369133363E+00  0.6995563870E+15  0.5644398826E+00  0.4822541548E-17 -0.8672158217E+00
  0.2570463033E+00  0.1000000000E+01  0.3530110648E+00  0.3046702865E+00  0.3951125061E-17 -0.6924898934E+00  0.6995563870E+15  0.2957382332E+00  0.3129786285E-17 -0.6358055374E+00
  0.1429536967E+00  0.1000000000E+01  0.3530110648E+00 -0.1564547639E-01  0.2658244883E-17 -0.4962779998E+00  0.6995563870E+15  0.1064510417E-01  0.2402130887E-17 -0.4664207646E+00
  0.4698893521E-01  0.1000000000E+01  0.3530110648E+00 -0.8088713840E-01  0.6390674045E-18 -0.1114230525E+00  0.6995563870E+15 -0.3605230911E-01  0.6165657474E-18 -0.1087360137E+00
  0.0000000000E+00  0.1000000000E+01  0.3530110648E+00 -0.1432132954E-01  0.3374921382E-20  0.4522948402E-02  0.6995563870E+15 -0.1398379091E-01  0.4167986451E-20 -0.6763647119E-03
  0.4000000000E+00  0.1000000000E+01  0.4000000000E+00  0.8411355814E+00  0.7040823762E-17 -0.1202288370E+01  0.6995563870E+15  0.7523757147E+00  0.6980536361E-17 -0.1068490758E+01
  0.3530110648E+00  0.1000000000E+01  0.4000000000E+00  0.6362889339E+00  0.6444943845E-17 -0.1135784543E+01  0.6995563870E+15  0.6087807688E+00  0.6296624426E-17 -0.1035525393E+01
  0.2570463033E+00  0.1000000000E+01  0.4000000000E+00  0.2986015289E+00  0.1953853674E-17 -0.8399733733E+00  0.6995563870E+15  0.3011416841E+00  0.2161498661E-17 -0.7794884690E+00
  0.1429536967E+00  0.1000000000E+01  0.4000000000E+00 -0.2625200422E-01  0.1987437874E-17 -0.5881920296E+00  0.6995563870E+15  0.1437476428E-01  0.2300413445E-17 -0.5608501226E+00
  0.4698893521E-01  0.1000000000E+01  0.4000000000E+00 -0.9982745231E-01  0.5986750134E-18 -0.1451983569E+00  0.6995563870E+15 -0.4352029869E-01  0.6164780374E-18 -0.1478412871E+00
  0.0000000000E+00  0.1000000000E+01  0.4000000000E+00 -0.6695265481E-02  0.9923673079E-20  0.2206736214E-02  0.6995563870E+15 -0.6378591002E-02  0.1014925421E-19 -0.4255190772E-02
ZONE I=6, J=6, K=1, F=POINT
  0.8000000000E+00  0.1000000000E+01  0.0000000000E+00  0.2762015493E-02 -0.7716575820E-19 -0.1161978441E-01  0.6995563870E+15 -0.9399514322E-02 -0.9571189534E-19 -0.1135130223E-01
  0.7530110648E+00  0.1000000000E+01  0.0000000000E+00 -0.1334562950E-01 -0.2437917451E-18  0.6144118037E-02  0.6995563870E+15 -0.2405250036E-01 -0.5117775987E-18  0.6472597158E-02
  0.6570463033E+00  0.1000000000E+01  0.0000000000E+00 -0.1501471460E-01 -0.1709704198E-18  0.5503102637E-03  0.6995563870E+15 -0.2313576728E-01 -0.2706786397E-18  0.9663232726E-03
  0.5429536967E+00  0.1000000000E+01  0.0000000000E+00 -0.1131436563E-01 -0.2900961288E-18  0.7272474220E-02  0.6995563870E+15 -0.1720239673E-01 -0.4380250345E-18  0.7789327519E-02
  0.4469889352E+00  0.1000000000E+01  0.0000000000E+00 -0.1202250628E-01 -0.3449733215E-18  0.7146792336E-03  0.6995563870E+15 -0.1615309045E-01 -0.4701166682E-18  0.1180973058E-02
  0.4000000000E+00  0.1000000000E+01  0.0000000000E+00  0.5553994247E-02  0.3023657392E-19  0.6856410387E-02  0.6995563870E+15  0.2605284715E-02  0.2517561388E-19  0.7354152897E-02
  0.8000000000E+00  0.1000000000E+01  0.4698893521E-01  0.4369443353E+00 -0.2273128606E-16 -0.9691426075E-01  0.6995563870E+15  0.3709018738E+00 -0.2193872287E-16 -0.7017117896E-01
  0.7530110648E+00  0.1000000000E+01  0.4698893521E-01  0.6162456118E+00 -0.2226565423E-16 -0.1582074021E+00  0.6995563870E+15  0.5572011761E+00 -0.1894642160E-16 -0.1297217507E+00
  0.6570463033E+00  0.1000000000E+01  0.4698893521E-01  0.3668230971E+00 -0.3890151243E-17 -0.1273639348E+00  0.6995563870E+15  0.3188438940E+00 -0.4432650006E-17 -0.1044616435E+00
  0.5429536967E+00  0.1000000000E+01  0.4698893521E-01  0.3688322551E+00  0.4787114581E-17 -0.1129339368E+00  0.6995563870E+15  0.3275918319E+00  0.4098992795E-17 -0.9197852365E-01
  0.4469889352E+00  0.1000000000E+01  0.4698893521E-01  0.2188828804E+00  0.4537690432E-17 -0.9725540266E-01  0.6995563870E+15  0.1834782295E+00  0.4726569446E-17 -0.6571467643E-01
  0.4000000000E+00  0.1000000000E+01  0.4698893521E-01  0.3127284008E+00  0.3252263676E-17 -0.1339321330E+00  0.6995563870E+15  0.2836401619E+00  0.3421727200E-17 -0.9673796533E-01
  0.8000000000E+00  0.1000000000E+01  0.1429536967E+00  0.1383733760E+01 -0.5006010576E-16 -0.5311414096E+00  0.6995563870E+15  0.1305184560E+01 -0.5218222764E-16 -0.5425823573E+00
  0.7530110648E+00  0.1000000000E+01  0.1429536967E+00  0.1632712635E+01 -0.3015072989E-16 -0.3888843648E+00  0.6995563870E+15  0.1568073246E+01 -0.2967544572E-16 -0.3945723381E+00
  0.6570463033E+00  0.1000000000E+01  0.1429536967E+00  0.1105809275E+01 -0.1307217148E-17 -0.3779761006E+00  0.6995563870E+15  0.1055970831E+01  0.7140015594E-18 -0.3738410266E+00
  0.5429536967E+00  0.1000000000E+01  0.1429536967E+00  0.9551810445E+00  0.1092048879E-16 -0.2168725483E+00  0.6995563870E+15  0.9052019339E+00  0.9500510249E-17 -0.2014331271E+00
  0.4469889352E+00  0.1000000000E+01  0.1429536967E+00  0.5906489815E+00  0.1154380985E-16 -0.2868392150E+00  0.6995563870E+15  0.5438551811E+00  0.1173288623E-16 -0.2599156895E+00
  0.4000000000E+00  0.1000000000E+01  0.1429536967E+00  0.6762608154E+00  0.1119141375E-16 -0.2544995724E+00  0.6995563870E+15  0.6412350804E+00  0.1072419142E-16 -0.2234233659E+00
  0.8000000000E+00  0.1000000000E+01  0.2570463033E+00  0.2656139615E+01 -0.8902340370E-17 -0.1213301801E+01  0.6995563870E+15  0.2565814247E+01 -0.9139687748E-17 -0.1234512908E+01
  0.7530110648E+00  0.1000000000E+01  0.2570463033E+00  0.2446389015E+01 -0.7375823412E-17 -0.9577149667E+00  0.6995563870E+15  0.2372665068E+01 -0.7258631681E-17 -0.9759180680E+00
  0.6570463033E+00  0.1000000000E+01  0.2570463033E+00  0.1827143885E+01 -0.1898209101E-18 -0.8736091025E+00  0.6995563870E+15  0.1779754978E+01  0.1123739191E-17 -0.9056819697E+00
  0.5429536967E+00  0.1000000000E+01  0.2570463033E+00  0.1349024457E+01  0.4761724167E-17 -0.5750383829E+00  0.6995563870E+15  0.1286400098E+01  0.3733036680E-17 -0.6225453510E+00
  0.4469889352E+00  0.1000000000E+01  0.2570463033E+00  0.9173839677E+00  0.4344874686E-17 -0.6359579947E+00  0.6995563870E+15  0.8382606233E+00  0.4244173720E-17 -0.6501429596E+00
  0.4000000000E+00  0.1000000000E+01  0.2570463033E+00  0.8130874064E+00  0.5429648613E-17 -0.5648613958E+00  0.6995563870E+15  0.7537018551E+00  0.5361991572E-17 -0.5550808314E+00
  0.8000000000E+00  0.1000000000E+01  0.3530110648E+00  0.3091502565E+01  0.3836797697E-17 -0.1926753071E+01  0.6995563870E+15  0.2986784320E+01  0.3930802449E-17 -0.1863862194E+01
  0.7530110648E+00  0.1000000000E+01  0.3530110648E+00  0.2872411163E+01  0.8698536233E-17 -0.1705733824E+01  0.6995563870E+15  0.2799159399E+01  0.4636513634E-17 -0.1633296364E+01
  0.6570463033E+00  0.1000000000E+01  0.3530110648E+00  0.2171606584E+01  0.4737425257E-17 -0.1514101290E+01  0.6995563870E+15  0.2162037927E+01  0.4214561912E-17 -0.1455919834E+01
  0.5429536967E+00  0.1000000000E+01  0.3530110648E+00  0.1550928620E+01  0.4906795314E-17 -0.1167821605E+01  0.6995563870E+15  0.1485025514E+01  0.8711334514E-17 -0.1145104729E+01
  0.4469889352E+00  0.1000000000E+01  0.3530110648E+00  0.9811932683E+00  0.6685107704E-17 -0.1086136075E+01  0.6995563870E+15  0.8417586618E+00  0.5865483493E-17 -0.1036884099E+01
  0.4000000000E+00  0.1000000000E+01  0.3530110648E+00  0.8913346444E+00  0.5514295137E-17 -0.9746160044E+00  0.6995563870E+15  0.7907776724E+00  0.5596718476E-17 -0.9074390605E+00
  0.8000000000E+00  0.1000000000E+01  0.4000000000E+00  0.3289989551E+01 -0.4300095687E-17 -0.2317835713E+01  0.6995563870E+15  0.3169937409E+01 -0.4295155904E-17 -0.2203759398E+01
  0.7530110648E+00  0.1000000000E+01  0.4000000000E+00  0.2922867174E+01  0.8858012769E-19 -0.2045902229E+01  0.6995563870E+15  0.2833281282E+01 -0.8242219990E-18 -0.1903873800E+01
  0.6570463033E+00  0.1000000000E+01  0.4000000000E+00  0.2269522404E+01 -0.3963163129E-18 -0.1872935000E+01  0.6995563870E+15  0.2265531727E+01  0.1815148506E-18 -0.1682269980E+01
  0.5429536967E+00  0.1000000000E+01  0.4000000000E+00  0.1567745794E+01  0.3033216256E-17 -0.1559368017E+01  0.6995563870E+15  0.1507234835E+01  0.3706564126E-17 -0.1369963259E+01
  0.4469889352E+00  0.1000000000E+01  0.4000000000E+00  0.1009901417E+01  0.6189809983E-17 -0.1370044356E+01  0.6995563870E+15  0.8656988175E+00  0.2006998841E-17 -0.1207371593E+01
  0.4000000000E+00  0.1000000000E+01  0.4000000000E+00  0.8525786358E+00  0.7057002041E-17 -0.1201614120E+01  0.6995563870E+15  0.7649512920E+00  0.7022596058E-17 -0.1068026422E+01
ZONE I=6, J=6, K=1, F=POINT
  0.1200000000E+01  0.1000000000E+01  0.0000000000E+00 -0.4376051655E-01  0.6576150726E-19  0.3632660317E-01  0.6995563870E+15 -0.6667544913E-01  0.5237655184E-19  0.3644673445E-01
  0.1153011065E+01  0.1000000000E+01  0.0000000000E+00 -0.1785261095E-01 -0.7297554323E-18 -0.9794149500E-02  0.6995563870E+15 -0.3987029357E-01 -0.1810830838E-17 -0.9511418564E-02
  0.1057046303E+01  0.1000000000E+01  0.0000000000E+00 -0.1170150053E-01 -0.3404013307E-18  0.5880397173E-02  0.6995563870E+15 -0.3138622457E-01 -0.8467273271E-18  0.6198736563E-02
  0.9429536967E+00  0.1000000000E+01  0.0000000000E+00 -0.1674874350E-01  0.1981712094E-19 -0.8356944308E-02  0.6995563870E+15 -0.3323254202E-01 -0.9682795483E-20 -0.7955891710E-02
  0.8469889352E+00  0.1000000000E+01  0.0000000000E+00 -0.1172965244E-01 -0.1463397500E-19  0.5396135541E-02  0.6995563870E+15 -0.2530143824E-01 -0.1701833110E-19  0.5784487456E-02
  0.8000000000E+00  0.1000000000E+01  0.0000000000E+00 -0.4265502906E-01 -0.8691534250E-19 -0.1109658448E-01  0.6995563870E+15 -0.5485488391E-01 -0.1075139379E-18 -0.1081874964E-01
  0.1200000000E+01  0.1000000000E+01  0.4698893521E-01  0.2410962857E+01 -0.4392547574E-16 -0.2351097026E+00  0.6995563870E+15  0.2320418530E+01 -0.3986594658E-16 -0.2873476594E+00
  0.1153011065E+01  0.1000000000E+01  0.4698893521E-01  0.1713151360E+01 -0.2692667589E-16 -0.9852152139E-01  0.6995563870E+15  0.1620006824E+01 -0.2395778276E-16 -0.1421762798E+00
  0.1057046303E+01  0.1000000000E+01  0.4698893521E-01  0.1555152920E+01 -0.1106412709E-16 -0.1553664692E+00  0.6995563870E+15  0.1466560364E+01 -0.1215691318E-16 -0.1779982005E+00
  0.9429536967E+00  0.1000000000E+01  0.4698893521E-01  0.9127392075E+00 -0.1431104230E-16 -0.1664252977E+00  0.6995563870E+15  0.8325076422E+00 -0.1210150464E-16 -0.1663929748E+00
  0.8469889352E+00  0.1000000000E+01  0.4698893521E-01  0.7817478338E+00 -0.2720229957E-16 -0.1785036602E+00  0.6995563870E+15  0.7093318801E+00 -0.2400379591E-16 -0.1588240293E+00
  0.8000000000E+00  0.1000000000E+01  0.4698893521E-01  0.3757052041E+00 -0.2203915524E-16 -0.9481309298E-01  0.6995563870E+15  0.3101105579E+00 -0.2123693207E-16 -0.6814897916E-01
  0.1200000000E+01  0.1000000000E+01  0.1429536967E+00  0.5654543785E+01 -0.6101233630E-16 -0.6691914496E+00  0.6995563870E+15  0.5554528450E+01 -0.5825972476E-16 -0.7588141696E+00
  0.1153011065E+01  0.1000000000E+01  0.1429536967E+00  0.4193269131E+01 -0.6356740182E-16 -0.8972961794E+00  0.6995563870E+15  0.4079281908E+01 -0.6947635930E-16 -0.9796414695E+00
  0.1057046303E+01  0.1000000000E+01  0.1429536967E+00  0.3761855318E+01 -0.3617682466E-16 -0.7261158945E+00  0.6995563870E+15  0.3651161039E+01 -0.3597538263E-16 -0.7891559981E+00
  0.9429536967E+00  0.1000000000E+01  0.1429536967E+00  0.2418452487E+01 -0.3134828004E-16 -0.8746382968E+00  0.6995563870E+15  0.2315895221E+01 -0.3131155604E-16 -0.9136435418E+00
  0.8469889352E+00  0.1000000000E+01  0.1429536967E+00  0.2057813051E+01 -0.4715517322E-16 -0.5438907870E+00  0.6995563870E+15  0.1964092557E+01 -0.4494753913E-16 -0.5630476478E+00
  0.8000000000E+00  0.1000000000E+01  0.1429536967E+00  0.1299527774E+01 -0.5225262820E-16 -0.5327780009E+00  0.6995563870E+15  0.1222859367E+01 -0.5443368002E-16 -0.5442085335E+00
  0.1200000000E+01  0.1000000000E+01  0.2570463033E+00  0.6320480457E+01 -0.1129162566E-16 -0.1807484833E+01  0.6995563870E+15  0.6206556318E+01 -0.1125401939E-16 -0.1884324873E+01
  0.1153011065E+01  0.1000000000E+01  0.2570463033E+00  0.5781727484E+01 -0.5124816900E-16 -0.2098242076E+01  0.6995563870E+15  0.5651829453E+01 -0.3838791885E-16 -0.2171216270E+01
  0.1057046303E+01  0.1000000000E+01  0.2570463033E+00  0.4877848474E+01 -0.3005959670E-16 -0.1785488671E+01  0.6995563870E+15  0.4744487311E+01 -0.3028645421E-16 -0.1839217091E+01
  0.9429536967E+00  0.1000000000E+01  0.2570463033E+00  0.3771502961E+01 -0.3117890866E-16 -0.1893704149E+01  0.6995563870E+15  0.3650638122E+01 -0.2468761332E-16 -0.1923226917E+01
  0.8469889352E+00  0.1000000000E+01  0.2570463033E+00  0.3089597971E+01 -0.1060516352E-16 -0.1282083655E+01  0.6995563870E+15  0.2985471947E+01 -0.1430786155E-16 -0.1305526330E+01
  0.8000000000E+00  0.1000000000E+01  0.2570463033E+00  0.2618047347E+01 -0.9144558968E-17 -0.1216035254E+01  0.6995563870E+15  0.2528692249E+01 -0.9299255742E-17 -0.1236758433E+01
  0.1200000000E+01  0.1000000000E+01  0.3530110648E+00  0.6928890944E+01  0.2163496728E-16 -0.3000969131E+01  0.6995563870E+15  0.6803823681E+01  0.2168576860E-16 -0.3064817317E+01
  0.1153011065E+01  0.1000000000E+01  0.3530110648E+00  0.6203696208E+01  0.3438526654E-17 -0.2998973533E+01  0.6995563870E+15  0.6054870185E+01  0.5384833856E-17 -0.3051625815E+01
  0.1057046303E+01  0.1000000000E+01  0.3530110648E+00  0.5390424279E+01 -0.1015359499E-16 -0.2754876901E+01  0.6995563870E+15  0.5225785032E+01 -0.9673009613E-17 -0.2774887970E+01
  0.9429536967E+00  0.1000000000E+01  0.3530110648E+00  0.4266359433E+01 -0.1732756409E-16 -0.2651939620E+01  0.6995563870E+15  0.4124808403E+01 -0.1282807645E-16 -0.2627416926E+01
  0.8469889352E+00  0.1000000000E+01  0.3530110648E+00  0.3619044664E+01  0.3877716471E-17 -0.2095143825E+01  0.6995563870E+15  0.3507239037E+01  0.2166137032E-18 -0.2043617597E+01
  0.8000000000E+00  0.1000000000E+01  0.3530110648E+00  0.3044098674E+01  0.3823207650E-17 -0.1927104430E+01  0.6995563870E+15  0.2940459997E+01  0.3961835552E-17 -0.1864245334E+01
  0.1200000000E+01  0.1000000000E+01  0.4000000000E+00  0.6790003272E+01  0.2283526831E-16 -0.3332147727E+01  0.6995563870E+15  0.6650380229E+01  0.2287694200E-16 -0.3393879543E+01
  0.1153011065E+01  0.1000000000E+01  0.4000000000E+00  0.6425553672E+01  0.1999875426E-16 -0.3526623498E+01  0.6995563870E+15  0.6262909921E+01  0.1796865287E-16 -0.3574861910E+01
  0.1057046303E+01  0.1000000000E+01  0.4000000000E+00  0.5467552022E+01 -0.2523097985E-17 -0.3172395283E+01  0.6995563870E+15  0.5285042660E+01 -0.3971786645E-17 -0.3192277457E+01
  0.9429536967E+00  0.1000000000E+01  0.4000000000E+00  0.4453460290E+01 -0.2059187942E-16 -0.3063136505E+01  0.6995563870E+15  0.4290603898E+01 -0.1672798169E-16 -0.3031752198E+01
  0.8469889352E+00  0.1000000000E+01  0.4000000000E+00  0.3678358153E+01 -0.8478934932E-17 -0.2442934970E+01  0.6995563870E+15  0.3548269243E+01 -0.9953320343E-17 -0.2354182412E+01
  0.8000000000E+00  0.1000000000E+01  0.4000000000E+00  0.3285768826E+01 -0.4310909328E-17 -0.2321443275E+01  0.6995563870E+15  0.3165162529E+01 -0.4279977954E-17 -0.2206923631E+01
ZONE I=6, J=6, K=1, F=POINT
  0.1600000000E+01  0.1000000000E+01  0.0000000000E+00  0.1267015024E+00 -0.9194465871E-18 -0.7231174406E-01  0.6995563870E+15  0.9264714636E-01 -0.1060302311E-17 -0.7062212753E-01
  0.1553011065E+01  0.1000000000E+01  0.0000000000E+00  0.6109970075E-02 -0.1152186308E-17  0.4495022431E-01  0.6995563870E+15 -0.2649577588E-01  0.4286621614E-18  0.4513281304E-01
  0.1457046303E+01  0.1000000000E+01  0.0000000000E+00 -0.1383768119E-01  0.7560945789E-19 -0.3459558862E-02  0.6995563870E+15 -0.4341256626E-01  0.7323353064E-18 -0.3114583501E-02
  0.1342953697E+01  0.1000000000E+01  0.0000000000E+00 -0.3691807380E-02 -0.8321528655E-19  0.2954104270E-01  0.6995563870E+15 -0.3002121688E-01 -0.1549547263E-17  0.2976593247E-01
  0.1246988935E+01  0.1000000000E+01  0.0000000000E+00 -0.1840706449E-01  0.1711284612E-19 -0.8377956810E-02  0.6995563870E+15 -0.4251210507E-01 -0.3938946478E-19 -0.8108799982E-02
  0.1200000000E+01  0.1000000000E+01  0.0000000000E+00  0.4583444990E-01  0.7015514901E-19  0.3634181971E-01  0.6995563870E+15  0.2287821114E-01  0.4937821104E-19  0.3645231683E-01
  0.1600000000E+01  0.1000000000E+01  0.4698893521E-01  0.3043774351E+01 -0.8953592167E-16  0.1877105130E+00  0.6995563870E+15  0.2940522262E+01 -0.8718765125E-16  0.1698012237E+00
  0.1553011065E+01  0.1000000000E+01  0.4698893521E-01  0.3573679442E+01 -0.4305036309E-16 -0.3084111180E+00  0.6995563870E+15  0.3482829875E+01 -0.4578042599E-16 -0.3355514893E+00
  0.1457046303E+01  0.1000000000E+01  0.4698893521E-01  0.2666198286E+01 -0.6664190143E-17 -0.1043802339E+00  0.6995563870E+15  0.2574435393E+01 -0.3955870961E-17 -0.1556909262E+00
  0.1342953697E+01  0.1000000000E+01  0.4698893521E-01  0.2715239432E+01  0.2797595661E-16 -0.8198951320E-01  0.6995563870E+15  0.2622650488E+01  0.2712982694E-16 -0.1336173913E+00
  0.1246988935E+01  0.1000000000E+01  0.4698893521E-01  0.2142522191E+01 -0.6404566415E-17 -0.5769063850E-01  0.6995563870E+15  0.2055329974E+01 -0.1003053977E-16 -0.1108662663E+00
  0.1200000000E+01  0.1000000000E+01  0.4698893521E-01  0.2510503091E+01 -0.4820137162E-16 -0.2408386859E+00  0.6995563870E+15  0.2417639750E+01 -0.4407446727E-16 -0.2926660506E+00
  0.1600000000E+01  0.1000000000E+01  0.1429536967E+00  0.6543442874E+01 -0.2683418041E-15 -0.1666302450E+01  0.6995563870E+15  0.6416928803E+01 -0.2744008147E-15 -0.1779182567E+01
  0.1553011065E+01  0.1000000000E+01  0.1429536967E+00  0.8282086332E+01 -0.1472820783E-15 -0.8351926005E+00  0.6995563870E+15  0.8205164581E+01 -0.1442178746E-15 -0.9430720019E+00
  0.1457046303E+01  0.1000000000E+01  0.1429536967E+00  0.6368339462E+01  0.2830587642E-16 -0.8416394290E+00  0.6995563870E+15  0.6281217294E+01  0.2261364046E-16 -0.9428812668E+00
  0.1342953697E+01  0.1000000000E+01  0.1429536967E+00  0.6440359673E+01  0.9790524197E-16 -0.1839770149E+00  0.6995563870E+15  0.6343807130E+01  0.9433773481E-16 -0.2779244009E+00
  0.1246988935E+01  0.1000000000E+01  0.1429536967E+00  0.5094734437E+01  0.2085759354E-16 -0.7819711900E+00  0.6995563870E+15  0.5010032262E+01  0.2786450513E-16 -0.8739909318E+00
  0.1200000000E+01  0.1000000000E+01  0.1429536967E+00  0.5823180313E+01 -0.6513522608E-16 -0.6634437852E+00  0.6995563870E+15  0.5711155741E+01 -0.6232766302E-16 -0.7539456010E+00
  0.1600000000E+01  0.1000000000E+01  0.2570463033E+00  0.1174563761E+02  0.9546156772E-16 -0.3265927162E+01  0.6995563870E+15  0.1163013604E+02  0.9501857463E-16 -0.3390032309E+01
  0.1553011065E+01  0.1000000000E+01  0.2570463033E+00  0.1073123548E+02  0.1173721707E-15 -0.2192399057E+01  0.6995563870E+15  0.1063438399E+02  0.1154378234E-15 -0.2305763798E+01
  0.1457046303E+01  0.1000000000E+01  0.2570463033E+00  0.9514976696E+01  0.1750938970E-15 -0.2142789315E+01  0.6995563870E+15  0.9411855952E+01  0.1691223592E-15 -0.2240639103E+01
  0.1342953697E+01  0.1000000000E+01  0.2570463033E+00  0.7996903680E+01  0.1243633642E-15 -0.1147913548E+01  0.6995563870E+15  0.7897472302E+01  0.1187347922E-15 -0.1236315802E+01
  0.1246988935E+01  0.1000000000E+01  0.2570463033E+00  0.6777930947E+01  0.3790536846E-16 -0.1999141159E+01  0.6995563870E+15  0.6686734843E+01  0.3229676186E-16 -0.2079809326E+01
  0.1200000000E+01  0.1000000000E+01  0.2570463033E+00  0.6361535833E+01 -0.1165190388E-16 -0.1797383683E+01  0.6995563870E+15  0.6247013536E+01 -0.1151404596E-16 -0.1877308100E+01
  0.1600000000E+01  0.1000000000E+01  0.3530110648E+00  0.1046167012E+02  0.1959496371E-15 -0.3586733299E+01  0.6995563870E+15  0.1033733772E+02  0.1962239417E-15 -0.3676914388E+01
  0.1553011065E+01  0.1000000000E+01  0.3530110648E+00  0.1071531010E+02  0.1963772121E-15 -0.3527201831E+01  0.6995563870E+15  0.1061833298E+02  0.1956610774E-15 -0.3622993396E+01
  0.1457046303E+01  0.1000000000E+01  0.3530110648E+00  0.9654657757E+01  0.1814049344E-15 -0.3220056885E+01  0.6995563870E+15  0.9546991010E+01  0.1762602943E-15 -0.3323482359E+01
  0.1342953697E+01  0.1000000000E+01  0.3530110648E+00  0.8480151290E+01  0.1323959590E-15 -0.2638404261E+01  0.6995563870E+15  0.8370212257E+01  0.1297673792E-15 -0.2728888927E+01
  0.1246988935E+01  0.1000000000E+01  0.3530110648E+00  0.7101928455E+01  0.4793391219E-16 -0.2993012079E+01  0.6995563870E+15  0.6999753757E+01  0.5183180747E-16 -0.3065594145E+01
  0.1200000000E+01  0.1000000000E+01  0.3530110648E+00  0.7007500214E+01  0.2176192562E-16 -0.3001150669E+01  0.6995563870E+15  0.6878180872E+01  0.2176564102E-16 -0.3064798402E+01
  0.1600000000E+01  0.1000000000E+01  0.4000000000E+00  0.1074062246E+02  0.1954283305E-15 -0.4148774666E+01  0.6995563870E+15  0.1062338051E+02  0.1953669431E-15 -0.4304334531E+01
  0.1553011065E+01  0.1000000000E+01  0.4000000000E+00  0.1014218652E+02  0.2026757048E-15 -0.3420969859E+01  0.6995563870E+15  0.1004982246E+02  0.2046877979E-15 -0.3570465098E+01
  0.1457046303E+01  0.1000000000E+01  0.4000000000E+00  0.9667769439E+01  0.1675317768E-15 -0.3669377640E+01  0.6995563870E+15  0.9555642283E+01  0.1675853977E-15 -0.3802493843E+01
  0.1342953697E+01  0.1000000000E+01  0.4000000000E+00  0.8357101444E+01  0.1358728053E-15 -0.3010251865E+01  0.6995563870E+15  0.8238241753E+01  0.1282463228E-15 -0.3119035100E+01
  0.1246988935E+01  0.1000000000E+01  0.4000000000E+00  0.7349026803E+01  0.4474170053E-16 -0.3566381377E+01  0.6995563870E+15  0.7233925107E+01  0.4657519948E-16 -0.3643913637E+01
  0.1200000000E+01  0.1000000000E+01  0.4000000000E+00  0.6763065707E+01  0.2313746489E-16 -0.3319484004E+01  0.6995563870E+15  0.6625156222E+01  0.2311660212E-16 -0.3384279614E+01
ZONE I=6, J=6, K=1, F=POINT
  0.2000000000E+01  0.1000000000E+01  0.0000000000E+00  0.2403636353E+01  0.7285035425E-19  0.2123542641E+02  0.6995563870E+15  0.2426581034E+01  0.8542112529E-19  0.2215188496E+02
  0.1953011065E+01  0.1000000000E+01  0.0000000000E+00  0.1297684313E+01 -0.3731193649E-16 -0.1345859115E+00  0.6995563870E+15  0.1262153367E+01 -0.3526346253E-16 -0.1535924394E+00
  0.1857046303E+01  0.1000000000E+01  0.0000000000E+00 -0.3028264487E+00 -0.1861798744E-16  0.1507593541E+00  0.6995563870E+15 -0.3496406658E+00 -0.2170418548E-16  0.1506103503E+00
  0.1742953697E+01  0.1000000000E+01  0.0000000000E+00  0.1341837113E+00  0.2297207916E-18 -0.3715843191E-01  0.6995563870E+15  0.9535998530E-01 -0.2513095115E-19 -0.3728437708E-01
  0.1646988935E+01  0.1000000000E+01  0.0000000000E+00 -0.1293923524E+00  0.3416912682E-18  0.6001553431E-01  0.6995563870E+15 -0.1706762884E+00  0.4126483217E-18  0.5987069300E-01
  0.1600000000E+01  0.1000000000E+01  0.0000000000E+00  0.8460671880E-01 -0.1001611305E-17 -0.8434445594E-01  0.6995563870E+15  0.5109989913E-01 -0.1137096015E-17 -0.8125620612E-01
  0.2000000000E+01  0.1000000000E+01  0.4698893521E-01 -0.9454710250E-02  0.7652393491E-18  0.4848843653E+02  0.6995563870E+15 -0.5862442622E-01  0.6887555713E-18  0.4862271493E+02
  0.1953011065E+01  0.1000000000E+01  0.4698893521E-01  0.1103936469E+02  0.1355854940E-15  0.1536389167E+01  0.6995563870E+15  0.1091609001E+02  0.1333666558E-15  0.1450813015E+01
  0.1857046303E+01  0.1000000000E+01  0.4698893521E-01  0.1168023379E+02  0.2913322231E-15 -0.1853219591E+01  0.6995563870E+15  0.1155359975E+02  0.2824892559E-15 -0.1935735627E+01
  0.1742953697E+01  0.1000000000E+01  0.4698893521E-01  0.5754504951E+01 -0.4522488753E-16 -0.6377282445E+00  0.6995563870E+15  0.5638783022E+01 -0.4446011539E-16 -0.7112546701E+00
  0.1646988935E+01  0.1000000000E+01  0.4698893521E-01  0.4511304275E+01 -0.1270561610E-15 -0.6603074674E+00  0.6995563870E+15  0.4372185071E+01 -0.1198929559E-15 -0.6912894081E+00
  0.1600000000E+01  0.1000000000E+01  0.4698893521E-01  0.2877874662E+01 -0.8663804608E-16  0.1737462241E+00  0.6995563870E+15  0.2784832922E+01 -0.8415950126E-16  0.1504335843E+00
  0.2000000000E+01  0.1000000000E+01  0.1429536967E+00 -0.2836013331E+00  0.2609831785E-17  0.5050637981E+02  0.6995563870E+15 -0.2578773123E+00  0.2729085425E-17  0.5039442240E+02
  0.1953011065E+01  0.1000000000E+01  0.1429536967E+00  0.2865296651E+01 -0.5024958427E-15  0.1641995898E+02  0.6995563870E+15  0.2728432919E+01 -0.5136096531E-15  0.1632414896E+02
  0.1857046303E+01  0.1000000000E+01  0.1429536967E+00  0.1275857633E+02 -0.2744464141E-15 -0.3614447107E+01  0.6995563870E+15  0.1262279586E+02 -0.2665255414E-15 -0.3735541970E+01
  0.1742953697E+01  0.1000000000E+01  0.1429536967E+00  0.1004533128E+02 -0.2847542923E-16 -0.3983771653E+01  0.6995563870E+15  0.9911016644E+01 -0.4217976202E-16 -0.4114410412E+01
  0.1646988935E+01  0.1000000000E+01  0.1429536967E+00  0.9507998884E+01 -0.1659816705E-15 -0.1931694873E+01  0.6995563870E+15  0.9334319682E+01 -0.1660851632E-15 -0.2050043590E+01
  0.1600000000E+01  0.1000000000E+01  0.1429536967E+00  0.6169126553E+01 -0.2848070978E-15 -0.1666748567E+01  0.6995563870E+15  0.6084097555E+01 -0.2913371412E-15 -0.1783906753E+01
  0.2000000000E+01  0.1000000000E+01  0.2570463033E+00  0.1851501061E-01  0.1155522394E-17  0.4987119403E+02  0.6995563870E+15  0.1712977771E-01  0.1075150693E-17  0.4983223331E+02