TITLE = "Generated from ../MESH/Convergence_0000000000.hmesh and Convergence_0000007000.hsol"
VARIABLES = "x","y","z","veloT_x","veloT_y","veloT_z","slr_4","velo_x","velo_y","velo_z"
ZONE I=6, J=6, K=1, F=POINT
  0.4000000000E+00  0.1000000000E+01  0.0000000000E+00 -0.1447519514E-01  0.2732010506E-19  0.8076501878E-02  0.6384930651E+15 -0.1572603280E-01  0.2573344223E-19  0.7855336510E-02
  0.3530110648E+00  0.1000000000E+01  0.0000000000E+00 -0.4928754712E-02  0.9195117549E-20 -0.2277731960E-03  0.6384930651E+15 -0.5391083708E-02  0.8689801263E-20 -0.2366711900E-03
  0.2570463033E+00  0.1000000000E+01  0.0000000000E+00 -0.3559071665E-02  0.1582589464E-20  0.2367760030E-02  0.6384930651E+15 -0.3310392059E-02  0.1121180521E-20  0.2470019256E-02
  0.1429536967E+00  0.1000000000E+01  0.0000000000E+00 -0.5087195159E-02  0.4011054990E-21 -0.1206186199E-02  0.6384930651E+15 -0.4137777452E-02  0.3898099391E-21 -0.1197024137E-02
  0.4698893521E-01  0.1000000000E+01  0.0000000000E+00 -0.1731234713E-02 -0.2727709611E-20  0.2405489150E-02  0.6384930651E+15 -0.8241114207E-03 -0.3053261851E-20  0.2548469682E-02
  0.0000000000E+00  0.1000000000E+01  0.0000000000E+00 -0.7899477656E-02  0.1631273074E-22  0.2486667581E-02  0.6384930651E+15 -0.7916420442E-02  0.2138060462E-22  0.2511824641E-02
  0.4000000000E+00  0.1000000000E+01  0.4698893521E-01  0.2738134131E+00  0.3387094380E-17 -0.7948510930E-01  0.6384930651E+15  0.2639236153E+00  0.3444070629E-17 -0.7007810390E-01
  0.3530110648E+00  0.1000000000E+01  0.4698893521E-01  0.1255709233E+00  0.3145582643E-17 -0.3647439150E-01  0.6384930651E+15  0.1182375705E+00  0.3212523735E-17 -0.2800185171E-01
  0.2570463033E+00  0.1000000000E+01  0.4698893521E-01  0.9183938942E-01  0.1308561046E-17 -0.3315567788E-01  0.6384930651E+15  0.8591927573E-01  0.1322910957E-17 -0.2873848436E-01
  0.1429536967E+00  0.1000000000E+01  0.4698893521E-01 -0.5106900161E-02  0.3907864891E-18 -0.1533278124E-01  0.6384930651E+15 -0.1115001554E-01  0.3780255279E-18 -0.9549259285E-02
  0.4698893521E-01  0.1000000000E+01  0.4698893521E-01 -0.9416369157E-02  0.9708034485E-19 -0.5435508555E-02  0.6384930651E+15 -0.1329818763E-01  0.9023131509E-19 -0.1217782977E-03
  0.0000000000E+00  0.1000000000E+01  0.4698893521E-01 -0.1850840163E-01  0.1033221489E-20  0.5769410261E-02  0.6384930651E+15 -0.1852688202E-01  0.1126541105E-20  0.4894313004E-02
  0.4000000000E+00  0.1000000000E+01  0.1429536967E+00  0.6301000525E+00  0.1061566863E-16 -0.1723379828E+00  0.6384930651E+15  0.6192285818E+00  0.1047414952E-16 -0.1666536157E+00
  0.3530110648E+00  0.1000000000E+01  0.1429536967E+00  0.3450530992E+00  0.7114975967E-17 -0.2029463257E+00  0.6384930651E+15  0.3418984501E+00  0.7080631987E-17 -0.1976167088E+00
  0.2570463033E+00  0.1000000000E+01  0.1429536967E+00  0.2280121137E+00  0.3093303628E-17 -0.1264299139E+00  0.6384930651E+15  0.2226701027E+00  0.3095073087E-17 -0.1221500378E+00
  0.1429536967E+00  0.1000000000E+01  0.1429536967E+00  0.2036051787E-01  0.1283723670E-17 -0.1194236970E+00  0.6384930651E+15  0.1273538531E-01  0.1286923532E-17 -0.1137907323E+00
  0.4698893521E-01  0.1000000000E+01  0.1429536967E+00 -0.2213225812E-01  0.3292465994E-18 -0.3195075412E-02  0.6384930651E+15 -0.2324406186E-01  0.3060592211E-18  0.1703798635E-02
  0.0000000000E+00  0.1000000000E+01  0.1429536967E+00 -0.2127545686E-01  0.3860893527E-21  0.2928228430E-02  0.6384930651E+15 -0.2118264675E-01  0.9222146386E-21  0.1602580325E-02
  0.4000000000E+00  0.1000000000E+01  0.2570463033E+00  0.7830087353E+00  0.5302627514E-17 -0.4641465224E+00  0.6384930651E+15  0.7657578255E+00  0.5288756808E-17 -0.4621343165E+00
  0.3530110648E+00  0.1000000000E+01  0.2570463033E+00  0.5637880151E+00  0.3969614847E-17 -0.4967068175E+00  0.6384930651E+15  0.5579644069E+00  0.4057264619E-17 -0.4906503541E+00
  0.2570463033E+00  0.1000000000E+01  0.2570463033E+00  0.3261249502E+00  0.3022302707E-17 -0.3443390539E+00  0.6384930651E+15  0.3207877285E+00  0.3020038904E-17 -0.3371774032E+00
  0.1429536967E+00  0.1000000000E+01  0.2570463033E+00  0.7305843585E-01  0.2065317846E-17 -0.2945860017E+00  0.6384930651E+15  0.6663289413E-01  0.2064587816E-17 -0.2903989201E+00
  0.4698893521E-01  0.1000000000E+01  0.2570463033E+00 -0.1282596937E-01  0.1332707591E-17 -0.4328029678E-01  0.6384930651E+15 -0.1244531790E-01  0.1351464613E-17 -0.4178526625E-01
  0.0000000000E+00  0.1000000000E+01  0.2570463033E+00 -0.1419799023E-01 -0.4879164257E-20  0.2781895836E-02  0.6384930651E+15 -0.1407183713E-01 -0.5134943425E-20  0.5499887443E-03
  0.4000000000E+00  0.1000000000E+01  0.3530110648E+00  0.8740362039E+00  0.5613840885E-17 -0.8159218590E+00  0.6384930651E+15  0.8432332952E+00  0.5630877923E-17 -0.7972959020E+00
  0.3530110648E+00  0.1000000000E+01  0.3530110648E+00  0.6308328005E+00  0.4915157072E-17 -0.7992718278E+00  0.6384930651E+15  0.6219331741E+00  0.4924872198E-17 -0.7798430377E+00
  0.2570463033E+00  0.1000000000E+01  0.3530110648E+00  0.3588364747E+00  0.2954562194E-17 -0.5954619565E+00  0.6384930651E+15  0.3571410445E+00  0.2734220577E-17 -0.5801326587E+00
  0.1429536967E+00  0.1000000000E+01  0.3530110648E+00  0.7499106045E-01  0.2434792259E-17 -0.4537023126E+00  0.6384930651E+15  0.7361278562E-01  0.2367298246E-17 -0.4458380967E+00
  0.4698893521E-01  0.1000000000E+01  0.3530110648E+00 -0.1696756967E-01  0.6418886779E-18 -0.1071244200E+00  0.6384930651E+15 -0.1268349671E-01  0.6390586689E-18 -0.1067256791E+00
  0.0000000000E+00  0.1000000000E+01  0.3530110648E+00 -0.1429879751E-01  0.5340238131E-20  0.3501899559E-02  0.6384930651E+15 -0.1429113249E-01  0.5766212835E-20 -0.1160694907E-03
  0.4000000000E+00  0.1000000000E+01  0.4000000000E+00  0.8730624252E+00  0.7365496033E-17 -0.1001991764E+01  0.6384930651E+15  0.8454965000E+00  0.7350353434E-17 -0.9689974509E+00
  0.3530110648E+00  0.1000000000E+01  0.4000000000E+00  0.6758574590E+00  0.6396068152E-17 -0.9636613223E+00  0.6384930651E+15  0.6699110660E+00  0.6350562012E-17 -0.9391516168E+00
  0.2570463033E+00  0.1000000000E+01  0.4000000000E+00  0.3690062422E+00  0.2612516267E-17 -0.7246610747E+00  0.6384930651E+15  0.3699290947E+00  0.2705424135E-17 -0.7063036061E+00
  0.1429536967E+00  0.1000000000E+01  0.4000000000E+00  0.8273280401E-01  0.2447671857E-17 -0.5376890594E+00  0.6384930651E+15  0.8568338719E-01  0.2519012288E-17 -0.5285311364E+00
  0.4698893521E-01  0.1000000000E+01  0.4000000000E+00 -0.2454572052E-01  0.6295760781E-18 -0.1402939012E+00  0.6384930651E+15 -0.1719154655E-01  0.6409684062E-18 -0.1406801161E+00
  0.0000000000E+00  0.1000000000E+01  0.4000000000E+00 -0.6322256984E-02  0.9124152458E-20  0.1861375436E-02  0.6384930651E+15 -0.6823263864E-02  0.9069531776E-20 -0.1727245947E-02
ZONE I=6, J=6, K=1, F=POINT
  0.8000000000E+00  0.1000000000E+01  0.0000000000E+00  0.1645423817E-01 -0.8206283821E-19 -0.1172214726E-01  0.6384930651E+15  0.1076344409E-01 -0.8813676065E-19 -0.1157956999E-01
  0.7530110648E+00  0.1000000000E+01  0.0000000000E+00  0.1639778378E-03  0.4435678737E-19  0.5907460455E-02  0.6384930651E+15 -0.4657113593E-02 -0.6960793717E-19  0.6034651767E-02
  0.6570463033E+00  0.1000000000E+01  0.0000000000E+00 -0.2895654840E-02 -0.9883450419E-20  0.3464264918E-03  0.6384930651E+15 -0.6534268205E-02 -0.5794321223E-19  0.5092252366E-03
  0.5429536967E+00  0.1000000000E+01  0.0000000000E+00 -0.1737012073E-02 -0.3954405753E-19  0.7133052147E-02  0.6384930651E+15 -0.4217320146E-02 -0.1041315096E-18  0.7334623627E-02
  0.4469889352E+00  0.1000000000E+01  0.0000000000E+00 -0.4657663752E-02 -0.1228205856E-18  0.8738222451E-03  0.6384930651E+15 -0.6044296001E-02 -0.1648002252E-18  0.8722150556E-03
  0.4000000000E+00  0.1000000000E+01  0.0000000000E+00  0.1188836359E-01  0.3113568244E-19  0.7778461234E-02  0.6384930651E+15  0.1096882548E-01  0.2953619137E-19  0.7549949840E-02
  0.8000000000E+00  0.1000000000E+01  0.4698893521E-01  0.4116959373E+00 -0.2275734409E-16 -0.2021272080E-01  0.6384930651E+15  0.3928516181E+00 -0.2253234405E-16 -0.1427602242E-01
  0.7530110648E+00  0.1000000000E+01  0.4698893521E-01  0.5961362103E+00 -0.2257747205E-16 -0.8038830940E-01  0.6384930651E+15  0.5793044737E+00 -0.2162373128E-16 -0.7504938883E-01
  0.6570463033E+00  0.1000000000E+01  0.4698893521E-01  0.3538362148E+00 -0.3832915417E-17 -0.5030810851E-01  0.6384930651E+15  0.3404149859E+00 -0.3994264511E-17 -0.4868690218E-01
  0.5429536967E+00  0.1000000000E+01  0.4698893521E-01  0.3631485549E+00  0.4817396889E-17 -0.3947853692E-01  0.6384930651E+15  0.3503980282E+00  0.4600378305E-17 -0.4034633794E-01
  0.4469889352E+00  0.1000000000E+01  0.4698893521E-01  0.2185934656E+00  0.4374977184E-17 -0.3557447532E-01  0.6384930651E+15  0.2061631357E+00  0.4445611587E-17 -0.2965387258E-01
  0.4000000000E+00  0.1000000000E+01  0.4698893521E-01  0.3149139499E+00  0.3150940150E-17 -0.8025700706E-01  0.6384930651E+15  0.3053236492E+00  0.3206943171E-17 -0.7084110741E-01
  0.8000000000E+00  0.1000000000E+01  0.1429536967E+00  0.1303941422E+01 -0.5058681695E-16 -0.4387701756E+00  0.6384930651E+15  0.1285776612E+01 -0.5106962175E-16 -0.4310702712E+00
  0.7530110648E+00  0.1000000000E+01  0.1429536967E+00  0.1569114912E+01 -0.3102453873E-16 -0.2920871165E+00  0.6384930651E+15  0.1553974130E+01 -0.3097075413E-16 -0.2851459838E+00
  0.6570463033E+00  0.1000000000E+01  0.1429536967E+00  0.1063056561E+01 -0.1711939222E-17 -0.2802849731E+00  0.6384930651E+15  0.1052668636E+01 -0.1285732781E-17 -0.2749047030E+00
  0.5429536967E+00  0.1000000000E+01  0.1429536967E+00  0.9342250621E+00  0.1105023199E-16 -0.1242965226E+00  0.6384930651E+15  0.9196006051E+00  0.1063407997E-16 -0.1194946088E+00
  0.4469889352E+00  0.1000000000E+01  0.1429536967E+00  0.5894975020E+00  0.1084973416E-16 -0.1997150688E+00  0.6384930651E+15  0.5718115773E+00  0.1094634487E-16 -0.1941412773E+00
  0.4000000000E+00  0.1000000000E+01  0.1429536967E+00  0.6822001486E+00  0.1133795704E-16 -0.1717881817E+00  0.6384930651E+15  0.6706243128E+00  0.1118451255E-16 -0.1661000698E+00
  0.8000000000E+00  0.1000000000E+01  0.2570463033E+00  0.2519383648E+01 -0.9120570090E-17 -0.1087993048E+01  0.6384930651E+15  0.2504100684E+01 -0.9167028061E-17 -0.1074857466E+01
  0.7530110648E+00  0.1000000000E+01  0.2570463033E+00  0.2335258370E+01 -0.6154129536E-17 -0.8281783835E+00  0.6384930651E+15  0.2324743733E+01 -0.5937447761E-17 -0.8168817846E+00
  0.6570463033E+00  0.1000000000E+01  0.2570463033E+00  0.1753946414E+01 -0.5169746958E-18 -0.7423972553E+00  0.6384930651E+15  0.1750701209E+01 -0.4240086511E-18 -0.7427140189E+00
  0.5429536967E+00  0.1000000000E+01  0.2570463033E+00  0.1308565240E+01  0.4824346287E-17 -0.4501784920E+00  0.6384930651E+15  0.1295305552E+01  0.4606428121E-17 -0.4627404273E+00
  0.4469889352E+00  0.1000000000E+01  0.2570463033E+00  0.9034113393E+00  0.5290581468E-17 -0.5253710160E+00  0.6384930651E+15  0.8803610556E+00  0.5249489414E-17 -0.5303616349E+00
  0.4000000000E+00  0.1000000000E+01  0.2570463033E+00  0.8136433561E+00  0.5327469271E-17 -0.4634726016E+00  0.6384930651E+15  0.7969935927E+00  0.5312408919E-17 -0.4615251085E+00
  0.8000000000E+00  0.1000000000E+01  0.3530110648E+00  0.2908358855E+01  0.4696970641E-17 -0.1701932510E+01  0.6384930651E+15  0.2894211263E+01  0.4704434447E-17 -0.1673429455E+01
  0.7530110648E+00  0.1000000000E+01  0.3530110648E+00  0.2726780640E+01  0.8893536905E-17 -0.1474071721E+01  0.6384930651E+15  0.2722642787E+01  0.8656561837E-17 -0.1445513811E+01
  0.6570463033E+00  0.1000000000E+01  0.3530110648E+00  0.2063451502E+01  0.2733643066E-17 -0.1265466611E+01  0.6384930651E+15  0.2082152301E+01  0.1890146646E-17 -0.1250715747E+01
  0.5429536967E+00  0.1000000000E+01  0.3530110648E+00  0.1504818024E+01  0.1838763110E-17 -0.9087315637E+00  0.6384930651E+15  0.1493672108E+01  0.2581391692E-17 -0.9162763126E+00
  0.4469889352E+00  0.1000000000E+01  0.3530110648E+00  0.9942050657E+00  0.5641626957E-17 -0.8899875252E+00  0.6384930651E+15  0.9467264535E+00  0.5442816451E-17 -0.8820310916E+00
  0.4000000000E+00  0.1000000000E+01  0.3530110648E+00  0.9065127458E+00  0.5588358782E-17 -0.8157261847E+00  0.6384930651E+15  0.8757541551E+00  0.5613562577E-17 -0.7971298523E+00
  0.8000000000E+00  0.1000000000E+01  0.4000000000E+00  0.3076117469E+01 -0.2468755826E-17 -0.2059512123E+01  0.6384930651E+15  0.3061382936E+01 -0.2466933585E-17 -0.2022217085E+01
  0.7530110648E+00  0.1000000000E+01  0.4000000000E+00  0.2758712525E+01  0.8264740026E-18 -0.1774027918E+01  0.6384930651E+15  0.2752311462E+01  0.6918106066E-18 -0.1730955784E+01
  0.6570463033E+00  0.1000000000E+01  0.4000000000E+00  0.2128836401E+01  0.1558005115E-17 -0.1563274902E+01  0.6384930651E+15  0.2155905273E+01  0.1882024886E-17 -0.1514219448E+01
  0.5429536967E+00  0.1000000000E+01  0.4000000000E+00  0.1524143154E+01  0.7069321021E-17 -0.1210453558E+01  0.6384930651E+15  0.1515424804E+01  0.7263622342E-17 -0.1174581644E+01
  0.4469889352E+00  0.1000000000E+01  0.4000000000E+00  0.1066462249E+01  0.8008002673E-17 -0.1115758445E+01  0.6384930651E+15  0.1010058830E+01  0.6556076266E-17 -0.1079341552E+01
  0.4000000000E+00  0.1000000000E+01  0.4000000000E+00  0.8848482793E+00  0.7383911983E-17 -0.1001190739E+01  0.6384930651E+15  0.8561801201E+00  0.7376933393E-17 -0.9682799635E+00
ZONE I=6, J=6, K=1, F=POINT
  0.1200000000E+01  0.1000000000E+01  0.0000000000E+00 -0.3036949998E-01  0.6090172684E-19  0.3721127228E-01  0.6384930651E+15 -0.4036299582E-01  0.5905200929E-19  0.3701872292E-01
  0.1153011065E+01  0.1000000000E+01  0.0000000000E+00 -0.3462782378E-02 -0.1192469078E-18 -0.9610110939E-02  0.6384930651E+15 -0.1321188065E-01 -0.5849393950E-18 -0.9507119356E-02
  0.1057046303E+01  0.1000000000E+01  0.0000000000E+00  0.3336481099E-02  0.4980268269E-19  0.5784430263E-02  0.6384930651E+15 -0.5471550147E-02 -0.1784466955E-18  0.5898629901E-02
  0.9429536967E+00  0.1000000000E+01  0.0000000000E+00 -0.1798216916E-02  0.1056824140E-19 -0.8386566419E-02  0.6384930651E+15 -0.9611918754E-02  0.2070422564E-20 -0.8289188630E-02
  0.8469889352E+00  0.1000000000E+01  0.0000000000E+00  0.2788537001E-02 -0.1800730573E-19  0.5215518965E-02  0.6384930651E+15 -0.3866654813E-02 -0.2111156207E-19  0.5310901284E-02
  0.8000000000E+00  0.1000000000E+01  0.0000000000E+00 -0.2870683173E-01 -0.9147155966E-19 -0.1119026810E-01  0.6384930651E+15 -0.3453176916E-01 -0.9838620184E-19 -0.1104911552E-01
  0.1200000000E+01  0.1000000000E+01  0.4698893521E-01  0.2361811911E+01 -0.4305789946E-16 -0.2189147228E+00  0.6384930651E+15  0.2335239943E+01 -0.4183665544E-16 -0.2334004905E+00
  0.1153011065E+01  0.1000000000E+01  0.4698893521E-01  0.1663481452E+01 -0.2638910283E-16 -0.7627815929E-01  0.6384930651E+15  0.1637703929E+01 -0.2556220118E-16 -0.8812232188E-01
  0.1057046303E+01  0.1000000000E+01  0.4698893521E-01  0.1509595356E+01 -0.1114505411E-16 -0.1172378565E+00  0.6384930651E+15  0.1484551295E+01 -0.1145527078E-16 -0.1235816868E+00
  0.9429536967E+00  0.1000000000E+01  0.4698893521E-01  0.8750178591E+00 -0.1413911205E-16 -0.1108989044E+00  0.6384930651E+15  0.8517433027E+00 -0.1349226432E-16 -0.1090777128E+00
  0.8469889352E+00  0.1000000000E+01  0.4698893521E-01  0.7517121808E+00 -0.2718166777E-16 -0.1076358568E+00  0.6384930651E+15  0.7311718978E+00 -0.2627266904E-16 -0.1020769598E+00
  0.8000000000E+00  0.1000000000E+01  0.4698893521E-01  0.3507425392E+00 -0.2206394505E-16 -0.1813388768E-01  0.6384930651E+15  0.3318711622E+00 -0.2183858088E-16 -0.1225979119E-01
  0.1200000000E+01  0.1000000000E+01  0.1429536967E+00  0.5531198209E+01 -0.5928643183E-16 -0.6535183232E+00  0.6384930651E+15  0.5500426763E+01 -0.5834618001E-16 -0.6715512048E+00
  0.1153011065E+01  0.1000000000E+01  0.1429536967E+00  0.4060278531E+01 -0.6463314068E-16 -0.8739746387E+00  0.6384930651E+15  0.4027716787E+01 -0.6643461488E-16 -0.8874706955E+00
  0.1057046303E+01  0.1000000000E+01  0.1429536967E+00  0.3633633740E+01 -0.3594682194E-16 -0.6806570139E+00  0.6384930651E+15  0.3600444395E+01 -0.3588033372E-16 -0.6846655898E+00
  0.9429536967E+00  0.1000000000E+01  0.1429536967E+00  0.2306547632E+01 -0.3134082851E-16 -0.8047614185E+00  0.6384930651E+15  0.2276941784E+01 -0.3131878974E-16 -0.7999742083E+00
  0.8469889352E+00  0.1000000000E+01  0.1429536967E+00  0.1962762322E+01 -0.4734632838E-16 -0.4582943103E+00  0.6384930651E+15  0.1940582885E+01 -0.4688351160E-16 -0.4502575775E+00
  0.8000000000E+00  0.1000000000E+01  0.1429536967E+00  0.1220032427E+01 -0.5279318110E-16 -0.4404204746E+00  0.6384930651E+15  0.1203275908E+01 -0.5331211410E-16 -0.4326950561E+00
  0.1200000000E+01  0.1000000000E+01  0.2570463033E+00  0.6113102550E+01 -0.7965196058E-17 -0.1782838009E+01  0.6384930651E+15  0.6066627678E+01 -0.7914544927E-17 -0.1797225401E+01
  0.1153011065E+01  0.1000000000E+01  0.2570463033E+00  0.5561567508E+01 -0.4379751041E-16 -0.2061529644E+01  0.6384930651E+15  0.5513634496E+01 -0.3872491531E-16 -0.2069848757E+01
  0.1057046303E+01  0.1000000000E+01  0.2570463033E+00  0.4661148048E+01 -0.2879685272E-16 -0.1720245718E+01  0.6384930651E+15  0.4615678023E+01 -0.2889303610E-16 -0.1712786968E+01
  0.9429536967E+00  0.1000000000E+01  0.2570463033E+00  0.3580974959E+01 -0.2836308644E-16 -0.1796482653E+01  0.6384930651E+15  0.3547409659E+01 -0.2655084780E-16 -0.1779142015E+01
  0.8469889352E+00  0.1000000000E+01  0.2570463033E+00  0.2930238488E+01 -0.1052255397E-16 -0.1164426716E+01  0.6384930651E+15  0.2910554190E+01 -0.1098351193E-16 -0.1149291979E+01
  0.8000000000E+00  0.1000000000E+01  0.2570463033E+00  0.2480632344E+01 -0.9314021818E-17 -0.1090687631E+01  0.6384930651E+15  0.2466999814E+01 -0.9327707329E-17 -0.1077094382E+01
  0.1200000000E+01  0.1000000000E+01  0.3530110648E+00  0.6651358078E+01  0.2750294816E-16 -0.2960858394E+01  0.6384930651E+15  0.6592383187E+01  0.2752733999E-16 -0.2978062863E+01
  0.1153011065E+01  0.1000000000E+01  0.3530110648E+00  0.5910820521E+01  0.9151115330E-17 -0.2936294820E+01  0.6384930651E+15  0.5846194113E+01  0.1000744863E-16 -0.2945691921E+01
  0.1057046303E+01  0.1000000000E+01  0.3530110648E+00  0.5099987902E+01 -0.7656809028E-17 -0.2645918441E+01  0.6384930651E+15  0.5037829266E+01 -0.7696904551E-17 -0.2637839380E+01
  0.9429536967E+00  0.1000000000E+01  0.3530110648E+00  0.4004462405E+01 -0.1382551174E-16 -0.2487592326E+01  0.6384930651E+15  0.3966621999E+01 -0.1277254084E-16 -0.2462140282E+01
  0.8469889352E+00  0.1000000000E+01  0.3530110648E+00  0.3399718472E+01  0.2262378838E-17 -0.1887594603E+01  0.6384930651E+15  0.3384300649E+01  0.1552741423E-17 -0.1859446732E+01
  0.8000000000E+00  0.1000000000E+01  0.3530110648E+00  0.2860033067E+01  0.4729083695E-17 -0.1702260922E+01  0.6384930651E+15  0.2847671768E+01  0.4760347747E-17 -0.1673785713E+01
  0.1200000000E+01  0.1000000000E+01  0.4000000000E+00  0.6476498814E+01  0.3032571486E-16 -0.3300571438E+01  0.6384930651E+15  0.6408709956E+01  0.3033923497E-16 -0.3313933172E+01
  0.1153011065E+01  0.1000000000E+01  0.4000000000E+00  0.6097313584E+01  0.2515631328E-16 -0.3469269177E+01  0.6384930651E+15  0.6025832099E+01  0.2430657787E-16 -0.3478468558E+01
  0.1057046303E+01  0.1000000000E+01  0.4000000000E+00  0.5139532616E+01  0.1778835325E-17 -0.3059073793E+01  0.6384930651E+15  0.5069520689E+01  0.1368584847E-17 -0.3057598771E+01
  0.9429536967E+00  0.1000000000E+01  0.4000000000E+00  0.4152297580E+01 -0.1464271287E-16 -0.2882144047E+01  0.6384930651E+15  0.4108277930E+01 -0.1349291638E-16 -0.2862148365E+01
  0.8469889352E+00  0.1000000000E+01  0.4000000000E+00  0.3424214374E+01 -0.7202116058E-17 -0.2208481984E+01  0.6384930651E+15  0.3407151036E+01 -0.7500368419E-17 -0.2175071260E+01
  0.8000000000E+00  0.1000000000E+01  0.4000000000E+00  0.3071469939E+01 -0.2456977387E-17 -0.2062998499E+01  0.6384930651E+15  0.3056144847E+01 -0.2447679046E-17 -0.2025253832E+01
ZONE I=6, J=6, K=1, F=POINT
  0.1600000000E+01  0.1000000000E+01  0.0000000000E+00  0.1348931846E+00 -0.9333287486E-18 -0.7170681712E-01  0.6384930651E+15  0.1219954141E+00 -0.1050470474E-17 -0.7129755095E-01
  0.1553011065E+01  0.1000000000E+01  0.0000000000E+00  0.1483781632E-01 -0.1545442219E-17  0.4524935965E-01  0.6384930651E+15  0.2221875054E-02 -0.9546658170E-18  0.4517740517E-01
  0.1457046303E+01  0.1000000000E+01  0.0000000000E+00 -0.4074369703E-02 -0.1658429364E-18 -0.3405818845E-02  0.6384930651E+15 -0.1595594376E-01  0.8973741839E-19 -0.3313657097E-02
  0.1342953697E+01  0.1000000000E+01  0.0000000000E+00  0.7201506676E-02  0.5124377677E-18  0.2963129636E-01  0.6384930651E+15 -0.3614825211E-02 -0.8721051002E-19  0.2965820956E-01
  0.1246988935E+01  0.1000000000E+01  0.0000000000E+00 -0.6174677690E-02  0.1069927190E-18 -0.8228178321E-02  0.6384930651E+15 -0.1625409764E-01  0.7631409697E-19 -0.8048256584E-02
  0.1200000000E+01  0.1000000000E+01  0.0000000000E+00  0.5917366703E-01  0.6627474283E-19  0.3722920949E-01  0.6384930651E+15  0.4952099003E-01  0.6199587816E-19  0.3702794383E-01
  0.1600000000E+01  0.1000000000E+01  0.4698893521E-01  0.3017344390E+01 -0.8826279935E-16  0.2283831765E+00  0.6384930651E+15  0.2988089463E+01 -0.8760352605E-16  0.2023508888E+00
  0.1553011065E+01  0.1000000000E+01  0.4698893521E-01  0.3543975109E+01 -0.4314059137E-16 -0.2712035511E+00  0.6384930651E+15  0.3519012547E+01 -0.4387284427E-16 -0.2984199843E+00
  0.1457046303E+01  0.1000000000E+01  0.4698893521E-01  0.2627035553E+01 -0.5357047278E-17 -0.7671607845E-01  0.6384930651E+15  0.2600714557E+01 -0.4598018977E-17 -0.1064738750E+00
  0.1342953697E+01  0.1000000000E+01  0.4698893521E-01  0.2667589830E+01  0.2837961173E-16 -0.5981738194E-01  0.6384930651E+15  0.2639185523E+01  0.2811492178E-16 -0.8388385500E-01
  0.1246988935E+01  0.1000000000E+01  0.4698893521E-01  0.2094572590E+01 -0.6470353009E-17 -0.4065914643E-01  0.6384930651E+15  0.2067662602E+01 -0.7591559808E-17 -0.5856410238E-01
  0.1200000000E+01  0.1000000000E+01  0.4698893521E-01  0.2460228806E+01 -0.4727505003E-16 -0.2246439874E+00  0.6384930651E+15  0.2431956199E+01 -0.4603611239E-16 -0.2387067323E+00
  0.1600000000E+01  0.1000000000E+01  0.1429536967E+00  0.6491728251E+01 -0.2671824559E-15 -0.1663779148E+01  0.6384930651E+15  0.6442007081E+01 -0.2690358896E-15 -0.1724687149E+01
  0.1553011065E+01  0.1000000000E+01  0.1429536967E+00  0.8232003545E+01 -0.1442561936E-15 -0.8323355434E+00  0.6384930651E+15  0.8203401221E+01 -0.1431122936E-15 -0.8878818178E+00
  0.1457046303E+01  0.1000000000E+01  0.1429536967E+00  0.6291840468E+01  0.3010197316E-16 -0.8406638075E+00  0.6384930651E+15  0.6259506039E+01  0.2786816175E-16 -0.8836789117E+00
  0.1342953697E+01  0.1000000000E+01  0.1429536967E+00  0.6339433848E+01  0.9955785736E-16 -0.1772063195E+00  0.6384930651E+15  0.6302370944E+01  0.9820009208E-16 -0.2080669110E+00
  0.1246988935E+01  0.1000000000E+01  0.1429536967E+00  0.4985012396E+01  0.2301162647E-16 -0.7701594808E+00  0.6384930651E+15  0.4950970678E+01  0.2586602746E-16 -0.7921354075E+00
  0.1200000000E+01  0.1000000000E+01  0.1429536967E+00  0.5699183422E+01 -0.6342703633E-16 -0.6478479466E+00  0.6384930651E+15  0.5656198264E+01 -0.6236925606E-16 -0.6667101362E+00
  0.1600000000E+01  0.1000000000E+01  0.2570463033E+00  0.1163474767E+02  0.1008833911E-15 -0.3328279519E+01  0.6384930651E+15  0.1159793714E+02  0.1006825854E-15 -0.3381603867E+01
  0.1553011065E+01  0.1000000000E+01  0.2570463033E+00  0.1061951534E+02  0.1231928580E-15 -0.2252542435E+01  0.6384930651E+15  0.1057492528E+02  0.1223691686E-15 -0.2295216496E+01
  0.1457046303E+01  0.1000000000E+01  0.2570463033E+00  0.9374369122E+01  0.1801207190E-15 -0.2186881898E+01  0.6384930651E+15  0.9327178221E+01  0.1773312442E-15 -0.2217280297E+01
  0.1342953697E+01  0.1000000000E+01  0.2570463033E+00  0.7828173868E+01  0.1288258969E-15 -0.1161436171E+01  0.6384930651E+15  0.7785453190E+01  0.1263949207E-15 -0.1185411653E+01
  0.1246988935E+01  0.1000000000E+01  0.2570463033E+00  0.6591119034E+01  0.4161812246E-16 -0.1986129128E+01  0.6384930651E+15  0.6547984528E+01  0.3920278764E-16 -0.2004668015E+01
  0.1200000000E+01  0.1000000000E+01  0.2570463033E+00  0.6153561725E+01 -0.8284588320E-17 -0.1772882204E+01  0.6384930651E+15  0.6106365426E+01 -0.8198882970E-17 -0.1790264815E+01
  0.1600000000E+01  0.1000000000E+01  0.3530110648E+00  0.1029689536E+02  0.2036899252E-15 -0.3688342354E+01  0.6384930651E+15  0.1024828541E+02  0.2037459636E-15 -0.3711855321E+01
  0.1553011065E+01  0.1000000000E+01  0.3530110648E+00  0.1054303595E+02  0.2046137715E-15 -0.3626219762E+01  0.6384930651E+15  0.1049256521E+02  0.2042387164E-15 -0.3652528989E+01
  0.1457046303E+01  0.1000000000E+01  0.3530110648E+00  0.9452140616E+01  0.1889603367E-15 -0.3297953046E+01  0.6384930651E+15  0.9402352566E+01  0.1862751257E-15 -0.3327192187E+01
  0.1342953697E+01  0.1000000000E+01  0.3530110648E+00  0.8248825649E+01  0.1400966126E-15 -0.2665626368E+01  0.6384930651E+15  0.8203931505E+01  0.1389602625E-15 -0.2694516247E+01
  0.1246988935E+01  0.1000000000E+01  0.3530110648E+00  0.6847469700E+01  0.5486279833E-16 -0.2972757094E+01  0.6384930651E+15  0.6797068640E+01  0.5673653071E-16 -0.2995407552E+01
  0.1200000000E+01  0.1000000000E+01  0.3530110648E+00  0.6730502734E+01  0.2763775957E-16 -0.2961088418E+01  0.6384930651E+15  0.6667278994E+01  0.2762078945E-16 -0.2978063402E+01
  0.1600000000E+01  0.1000000000E+01  0.4000000000E+00  0.1054768968E+02  0.2042845391E-15 -0.4294701791E+01  0.6384930651E+15  0.1050884174E+02  0.2041943204E-15 -0.4329472234E+01
  0.1553011065E+01  0.1000000000E+01  0.4000000000E+00  0.9943379635E+01  0.2136693580E-15 -0.3562585989E+01  0.6384930651E+15  0.9897386893E+01  0.2146407832E-15 -0.3598898425E+01
  0.1457046303E+01  0.1000000000E+01  0.4000000000E+00  0.9437489731E+01  0.1787034524E-15 -0.3789973256E+01  0.6384930651E+15  0.9387134163E+01  0.1788780891E-15 -0.3825207027E+01
  0.1342953697E+01  0.1000000000E+01  0.4000000000E+00  0.8093202180E+01  0.1458224035E-15 -0.3067967341E+01  0.6384930651E+15  0.8047679832E+01  0.1428289682E-15 -0.3099965000E+01
  0.1246988935E+01  0.1000000000E+01  0.4000000000E+00  0.7060432781E+01  0.5317133708E-16 -0.3562731667E+01  0.6384930651E+15  0.7003275238E+01  0.5418468549E-16 -0.3582538488E+01
  0.1200000000E+01  0.1000000000E+01  0.4000000000E+00  0.6450495899E+01  0.3061851539E-16 -0.3287987573E+01  0.6384930651E+15  0.6384637480E+01  0.3059358748E-16 -0.3304408626E+01
ZONE I=6, J=6, K=1, F=POINT
  0.2000000000E+01  0.1000000000E+01  0.0000000000E+00  0.2402943115E+01  0.7450803809E-19  0.2123455588E+02  0.6384930651E+15  0.2429396463E+01  0.9283076333E-19  0.2215456637E+02
  0.1953011065E+01  0.1000000000E+01  0.0000000000E+00  0.1298806544E+01 -0.3743486141E-16 -0.1362959916E+00  0.6384930651E+15  0.1290209451E+01 -0.3591785456E-16 -0.1509947312E+00
  0.1857046303E+01  0.1000000000E+01  0.0000000000E+00 -0.2991295775E+00 -0.1837993579E-16  0.1516587340E+00  0.6384930651E+15 -0.3150198540E+00 -0.1974138073E-16  0.1504547821E+00
  0.1742953697E+01  0.1000000000E+01  0.0000000000E+00  0.1397149053E+00  0.2354226829E-18 -0.3711921290E-01  0.6384930651E+15  0.1269344165E+00  0.7619791747E-19 -0.3698583468E-01
  0.1646988935E+01  0.1000000000E+01  0.0000000000E+00 -0.1221119324E+00  0.2997416348E-18  0.6034957744E-01  0.6384930651E+15 -0.1361949042E+00  0.3109844145E-18  0.5969246384E-01
  0.1600000000E+01  0.1000000000E+01  0.0000000000E+00  0.9215004603E-01 -0.1014727881E-17 -0.8375522151E-01  0.6384930651E+15  0.7971574294E-01 -0.1131215286E-17 -0.8197048509E-01
  0.2000000000E+01  0.1000000000E+01  0.4698893521E-01 -0.1133468741E-01  0.7551521739E-18  0.4848988881E+02  0.6384930651E+15 -0.5588579024E-01  0.6918025899E-18  0.4865162392E+02
  0.1953011065E+01  0.1000000000E+01  0.4698893521E-01  0.1098486354E+02  0.1354048208E-15  0.1487495708E+01  0.6384930651E+15  0.1094892234E+02  0.1339945891E-15  0.1481830048E+01
  0.1857046303E+01  0.1000000000E+01  0.4698893521E-01  0.1162531267E+02  0.2879348311E-15 -0.1880381006E+01  0.6384930651E+15  0.1160057087E+02  0.2863041766E-15 -0.1902413762E+01
  0.1742953697E+01  0.1000000000E+01  0.4698893521E-01  0.5716740641E+01 -0.4379162089E-16 -0.6283152894E+00  0.6384930651E+15  0.5693969815E+01 -0.4335994737E-16 -0.6645757883E+00
  0.1646988935E+01  0.1000000000E+01  0.4698893521E-01  0.4469314280E+01 -0.1237837137E-15 -0.6237194268E+00  0.6384930651E+15  0.4433709018E+01 -0.1220745993E-15 -0.6524747015E+00
  0.1600000000E+01  0.1000000000E+01  0.4698893521E-01  0.2851380885E+01 -0.8537117775E-16  0.2142625900E+00  0.6384930651E+15  0.2832444079E+01 -0.8456118237E-16  0.1829278852E+00
  0.2000000000E+01  0.1000000000E+01  0.1429536967E+00 -0.2824369973E+00  0.2694740403E-17  0.5051128200E+02  0.6384930651E+15 -0.2579522043E+00  0.2724045980E-17  0.5043140463E+02
  0.1953011065E+01  0.1000000000E+01  0.1429536967E+00  0.2807189694E+01 -0.5078761022E-15  0.1637524446E+02  0.6384930651E+15  0.2767811313E+01 -0.5101018158E-15  0.1638029305E+02
  0.1857046303E+01  0.1000000000E+01  0.1429536967E+00  0.1267755928E+02 -0.2666697714E-15 -0.3638775173E+01  0.6384930651E+15  0.1266077738E+02 -0.2658808962E-15 -0.3669392326E+01
  0.1742953697E+01  0.1000000000E+01  0.1429536967E+00  0.9971292967E+01 -0.3298175422E-16 -0.3987901978E+01  0.6384930651E+15  0.9956715621E+01 -0.3495081983E-16 -0.4047396975E+01
  0.1646988935E+01  0.1000000000E+01  0.1429536967E+00  0.9436701012E+01 -0.1633739437E-15 -0.1928991601E+01  0.6384930651E+15  0.9393941663E+01 -0.1630399660E-15 -0.1991639022E+01
  0.1600000000E+01  0.1000000000E+01  0.1429536967E+00  0.6118579582E+01 -0.2837658780E-15 -0.1664234948E+01  0.6384930651E+15  0.6109573775E+01 -0.2859909168E-15 -0.1729394091E+01
  0.2000000000E+01  0.1000000000E+01  0.2570463033E+00  0.1897652541E-01  0.1145449137E-17  0.4988003117E+02  0.6384930651E+15  0.1780607995E-01  0.1095265438E-17  0.4986859792E+02