TITLE = "Generated from ../MESH/Convergence_0000000000.hmesh and Convergence_0000001000.hsol"
VARIABLES = "x","y","z","veloT_x","veloT_y","veloT_z","slr_4","velo_x","velo_y","velo_z"
ZONE I=6, J=6, K=1, F=POINT
  0.4000000000E+00  0.1000000000E+01  0.0000000000E+00 -0.1070120823E-01  0.3040705707E-19  0.6416664349E-02  0.6085919325E+15 -0.1091157261E-01  0.3061241624E-19  0.6967268650E-02
  0.3530110648E+00  0.1000000000E+01  0.0000000000E+00  0.3923400338E-03  0.1038551560E-19 -0.5337121895E-03  0.6085919325E+15  0.1345134000E-03  0.1228818118E-19 -0.4636409558E-03
  0.2570463033E+00  0.1000000000E+01  0.0000000000E+00  0.1612070129E-02  0.1868378405E-20  0.2169025881E-02  0.6085919325E+15  0.1306964817E-02  0.2184047759E-20  0.2136339180E-02
  0.1429536967E+00  0.1000000000E+01  0.0000000000E+00  0.1333767793E-02  0.3746388143E-21 -0.1072181413E-02  0.6085919325E+15  0.8254245823E-03  0.4261802176E-21 -0.1020968520E-02
  0.4698893521E-01  0.1000000000E+01  0.0000000000E+00  0.3870866089E-02 -0.1812529440E-20  0.1647494965E-02  0.6085919325E+15  0.3450854137E-02 -0.1551984503E-20  0.1581540657E-02
  0.0000000000E+00  0.1000000000E+01  0.0000000000E+00 -0.7513617530E-02  0.9098321506E-23  0.1943450284E-02  0.6085919325E+15 -0.7492817344E-02  0.1004028818E-22  0.1927380498E-02
  0.4000000000E+00  0.1000000000E+01  0.4698893521E-01  0.2349592839E+00  0.2296124901E-17 -0.6984624139E-01  0.6085919325E+15  0.2365027783E+00  0.2289123982E-17 -0.7214299886E-01
  0.3530110648E+00  0.1000000000E+01  0.4698893521E-01  0.9086619678E-01  0.1928910172E-17 -0.2988663789E-01  0.6085919325E+15  0.9278945732E-01  0.1913089266E-17 -0.3177948701E-01
  0.2570463033E+00  0.1000000000E+01  0.4698893521E-01  0.6960985334E-01  0.4213591939E-18 -0.3201452205E-01  0.6085919325E+15  0.7121039839E-01  0.4186045715E-18 -0.3304841383E-01
  0.1429536967E+00  0.1000000000E+01  0.4698893521E-01 -0.5246195064E-02 -0.1013054361E-19 -0.1544457582E-01  0.6085919325E+15 -0.2343670815E-02 -0.2885922110E-20 -0.1668715797E-01
  0.4698893521E-01  0.1000000000E+01  0.4698893521E-01 -0.2013793134E-03 -0.1105616160E-19 -0.1205482772E-01  0.6085919325E+15  0.2706864717E-02 -0.7346672057E-20 -0.1437799810E-01
  0.0000000000E+00  0.1000000000E+01  0.4698893521E-01 -0.1861924425E-01  0.9609767944E-21  0.3548500808E-03  0.6085919325E+15 -0.1857070688E-01  0.9880816126E-21  0.7928565349E-03
  0.4000000000E+00  0.1000000000E+01  0.1429536967E+00  0.4576903882E+00  0.8061583985E-17 -0.1371690254E+00  0.6085919325E+15  0.4571555838E+00  0.8058153918E-17 -0.1557991166E+00
  0.3530110648E+00  0.1000000000E+01  0.1429536967E+00  0.2069332796E+00  0.4247819282E-17 -0.1649755542E+00  0.6085919325E+15  0.2058309414E+00  0.4356929357E-17 -0.1812369342E+00
  0.2570463033E+00  0.1000000000E+01  0.1429536967E+00  0.1404099214E+00  0.8290623915E-18 -0.8137239910E-01  0.6085919325E+15  0.1394102940E+00  0.8232227760E-18 -0.9235181114E-01
  0.1429536967E+00  0.1000000000E+01  0.1429536967E+00 -0.2633053726E-02  0.6286547117E-19 -0.8531201333E-01  0.6085919325E+15 -0.8649783403E-03  0.5955682689E-19 -0.9136336255E-01
  0.4698893521E-01  0.1000000000E+01  0.1429536967E+00 -0.1029111474E-01 -0.3525586943E-20 -0.2794875208E-02  0.6085919325E+15 -0.7916487594E-02  0.1137829357E-19 -0.6053898202E-02
  0.0000000000E+00  0.1000000000E+01  0.1429536967E+00 -0.2198805489E-01 -0.8826791185E-23 -0.3424034441E-02  0.6085919325E+15 -0.2196114163E-01  0.2125255472E-21 -0.2965140810E-02
  0.4000000000E+00  0.1000000000E+01  0.2570463033E+00  0.4334462488E+00  0.4041060196E-18 -0.3066290261E+00  0.6085919325E+15  0.4274880506E+00  0.3941783799E-18 -0.3273919088E+00
  0.3530110648E+00  0.1000000000E+01  0.2570463033E+00  0.3002489797E+00 -0.5822441992E-18 -0.3396382969E+00  0.6085919325E+15  0.2907415851E+00 -0.8311541859E-18 -0.3572413067E+00
  0.2570463033E+00  0.1000000000E+01  0.2570463033E+00  0.1924018462E+00 -0.3351585237E-18 -0.1940187830E+00  0.6085919325E+15  0.1838926467E+00 -0.3327194043E-18 -0.2037930163E+00
  0.1429536967E+00  0.1000000000E+01  0.2570463033E+00  0.4865611047E-01  0.1981998270E-18 -0.1971255064E+00  0.6085919325E+15  0.4582058864E-01  0.1999598407E-18 -0.2018918575E+00
  0.4698893521E-01  0.1000000000E+01  0.2570463033E+00  0.6617215602E-02  0.4852436266E-18 -0.2197721407E-01  0.6085919325E+15  0.6358805126E-02  0.4533458221E-18 -0.2454829813E-01
  0.0000000000E+00  0.1000000000E+01  0.2570463033E+00 -0.1491381708E-01 -0.3366429068E-20 -0.2460612308E-02  0.6085919325E+15 -0.1491161442E-01 -0.3633763744E-20 -0.2312281315E-02
  0.4000000000E+00  0.1000000000E+01  0.3530110648E+00  0.4174940218E+00 -0.4543097864E-18 -0.4305085857E+00  0.6085919325E+15  0.4086989011E+00 -0.4473131174E-18 -0.4430927198E+00
  0.3530110648E+00  0.1000000000E+01  0.3530110648E+00  0.3068688215E+00 -0.7229556720E-18 -0.4443614490E+00  0.6085919325E+15  0.2895736286E+00 -0.7226540199E-18 -0.4546056415E+00
  0.2570463033E+00  0.1000000000E+01  0.3530110648E+00  0.2199491834E+00 -0.1163814164E-17 -0.3115917468E+00  0.6085919325E+15  0.2059211281E+00 -0.1114104303E-17 -0.3152713713E+00
  0.1429536967E+00  0.1000000000E+01  0.3530110648E+00  0.6518772388E-01  0.1063048676E-18 -0.2995577147E+00  0.6085919325E+15  0.6181711187E-01  0.1213725534E-18 -0.3015247592E+00
  0.4698893521E-01  0.1000000000E+01  0.3530110648E+00  0.9543357483E-02 -0.5431399169E-19 -0.7677707345E-01  0.6085919325E+15  0.8611693209E-02 -0.3342404222E-19 -0.7921552811E-01
  0.0000000000E+00  0.1000000000E+01  0.3530110648E+00 -0.1504778583E-01  0.4801261146E-20 -0.2536586142E-02  0.6085919325E+15 -0.1498851437E-01  0.4412156653E-20 -0.2613889715E-02
  0.4000000000E+00  0.1000000000E+01  0.4000000000E+00  0.3834939295E+00  0.7988283888E-18 -0.4680625990E+00  0.6085919325E+15  0.3740261400E+00  0.7992064511E-18 -0.4859851844E+00
  0.3530110648E+00  0.1000000000E+01  0.4000000000E+00  0.3344009414E+00  0.1100019695E-18 -0.4810007360E+00  0.6085919325E+15  0.3139582960E+00  0.1590493805E-18 -0.4968920803E+00
  0.2570463033E+00  0.1000000000E+01  0.4000000000E+00  0.2294898944E+00 -0.2133722735E-17 -0.3540818881E+00  0.6085919325E+15  0.2131576612E+00 -0.2192956465E-17 -0.3641487128E+00
  0.1429536967E+00  0.1000000000E+01  0.4000000000E+00  0.7852259672E-01 -0.5397820626E-18 -0.3476852281E+00  0.6085919325E+15  0.7489793518E-01 -0.5763968743E-18 -0.3535949773E+00
  0.4698893521E-01  0.1000000000E+01  0.4000000000E+00  0.5810542471E-02 -0.3933475347E-18 -0.1022760650E+00  0.6085919325E+15  0.4639699805E-02 -0.3828245916E-18 -0.1054520938E+00
  0.0000000000E+00  0.1000000000E+01  0.4000000000E+00 -0.7658394643E-02  0.8212172493E-20 -0.3518961104E-02  0.6085919325E+15 -0.7532149373E-02  0.8137551269E-20 -0.3944006218E-02
ZONE I=6, J=6, K=1, F=POINT
  0.8000000000E+00  0.1000000000E+01  0.0000000000E+00  0.1771138915E-01 -0.6452469565E-19 -0.1157929441E-01  0.6085919325E+15  0.1802368106E-01 -0.6583301184E-19 -0.1132123768E-01
  0.7530110648E+00  0.1000000000E+01  0.0000000000E+00  0.1924849784E-02  0.1089235382E-18  0.5755072933E-02  0.6085919325E+15  0.2115953327E-02  0.1171151294E-18  0.5754470564E-02
  0.6570463033E+00  0.1000000000E+01  0.0000000000E+00 -0.2895375921E-03  0.2221348102E-19  0.7206957630E-04  0.6085919325E+15 -0.2952191347E-03  0.2252887768E-19  0.1092987950E-03
  0.5429536967E+00  0.1000000000E+01  0.0000000000E+00  0.1557293776E-02  0.4698934252E-19  0.6487025128E-02  0.6085919325E+15  0.1423725131E-02  0.4455804313E-19  0.6534790009E-02
  0.4469889352E+00  0.1000000000E+01  0.0000000000E+00 -0.6897616863E-03  0.3837673455E-20  0.2093006007E-03  0.6085919325E+15 -0.9873814783E-03 -0.2782032531E-20  0.2751695503E-03
  0.4000000000E+00  0.1000000000E+01  0.0000000000E+00  0.1624398471E-01  0.3409206304E-19  0.6124676981E-02  0.6085919325E+15  0.1588143730E-01  0.3434587704E-19  0.6642071261E-02
  0.8000000000E+00  0.1000000000E+01  0.4698893521E-01  0.3401697677E+00 -0.2742053794E-16 -0.7515503753E-02  0.6085919325E+15  0.3417700060E+00 -0.2743215592E-16 -0.1230567684E-01
  0.7530110648E+00  0.1000000000E+01  0.4698893521E-01  0.5473489436E+00 -0.2765322882E-16 -0.7202429234E-01  0.6085919325E+15  0.5479652332E+00 -0.2768105863E-16 -0.7799155685E-01
  0.6570463033E+00  0.1000000000E+01  0.4698893521E-01  0.3179892917E+00 -0.6040498109E-17 -0.4655821139E-01  0.6085919325E+15  0.3184007693E+00 -0.6044763838E-17 -0.5287016490E-01
  0.5429536967E+00  0.1000000000E+01  0.4698893521E-01  0.3263809486E+00  0.4638957538E-17 -0.3730712274E-01  0.6085919325E+15  0.3269573846E+00  0.4644908808E-17 -0.4301152702E-01
  0.4469889352E+00  0.1000000000E+01  0.4698893521E-01  0.1769142793E+00  0.3516337281E-17 -0.2780792070E-01  0.6085919325E+15  0.1771565902E+00  0.3518765303E-17 -0.3076215081E-01
  0.4000000000E+00  0.1000000000E+01  0.4698893521E-01  0.2786172344E+00  0.2046109094E-17 -0.7061080843E-01  0.6085919325E+15  0.2794809433E+00  0.2042951842E-17 -0.7290502476E-01
  0.8000000000E+00  0.1000000000E+01  0.1429536967E+00  0.7564303109E+00 -0.5419439136E-16 -0.3221407870E+00  0.6085919325E+15  0.7625172976E+00 -0.5401786190E-16 -0.3361651208E+00
  0.7530110648E+00  0.1000000000E+01  0.1429536967E+00  0.1102168508E+01 -0.3590429488E-16 -0.2027447763E+00  0.6085919325E+15  0.1106782102E+01 -0.3582999239E-16 -0.2197174981E+00
  0.6570463033E+00  0.1000000000E+01  0.1429536967E+00  0.7105369310E+00 -0.8103574147E-17 -0.2300040100E+00  0.6085919325E+15  0.7124018025E+00 -0.8186759235E-17 -0.2517347966E+00
  0.5429536967E+00  0.1000000000E+01  0.1429536967E+00  0.6696775270E+00  0.9028245715E-17 -0.9699135394E-01  0.6085919325E+15  0.6683784733E+00  0.8973985214E-17 -0.1185727629E+00
  0.4469889352E+00  0.1000000000E+01  0.1429536967E+00  0.3777277359E+00  0.8320136100E-17 -0.1686333358E+00  0.6085919325E+15  0.3754904627E+00  0.8432943020E-17 -0.1884862124E+00
  0.4000000000E+00  0.1000000000E+01  0.1429536967E+00  0.5097266245E+00  0.8793255494E-17 -0.1366516522E+00  0.6085919325E+15  0.5094388774E+00  0.8794707014E-17 -0.1552685650E+00
  0.8000000000E+00  0.1000000000E+01  0.2570463033E+00  0.1117633068E+01 -0.9106384728E-17 -0.6518278416E+00  0.6085919325E+15  0.1129902837E+01 -0.9100153465E-17 -0.6654316670E+00
  0.7530110648E+00  0.1000000000E+01  0.2570463033E+00  0.1101072384E+01 -0.8040366068E-17 -0.4559508759E+00  0.6085919325E+15  0.1114742575E+01 -0.8337972449E-17 -0.4720391014E+00
  0.6570463033E+00  0.1000000000E+01  0.2570463033E+00  0.8175270368E+00 -0.7112555866E-17 -0.4832701720E+00  0.6085919325E+15  0.8232916449E+00 -0.7252309253E-17 -0.5043669124E+00
  0.5429536967E+00  0.1000000000E+01  0.2570463033E+00  0.6613122006E+00 -0.4097709533E-18 -0.2638189508E+00  0.6085919325E+15  0.6593735806E+00 -0.4391326518E-18 -0.2864327623E+00
  0.4469889352E+00  0.1000000000E+01  0.2570463033E+00  0.4511344772E+00  0.3565736922E-18 -0.3621976229E+00  0.6085919325E+15  0.4474384167E+00  0.7644518857E-19 -0.3843540397E+00
  0.4000000000E+00  0.1000000000E+01  0.2570463033E+00  0.4661756718E+00  0.4368347216E-18 -0.3060182247E+00  0.6085919325E+15  0.4597112467E+00  0.4256803133E-18 -0.3268011179E+00
  0.8000000000E+00  0.1000000000E+01  0.3530110648E+00  0.8879903095E+00  0.2725608850E-17 -0.8499170742E+00  0.6085919325E+15  0.9036346464E+00  0.2703613316E-17 -0.8610999690E+00
  0.7530110648E+00  0.1000000000E+01  0.3530110648E+00  0.9331525653E+00  0.6624964971E-17 -0.7078863276E+00  0.6085919325E+15  0.9503912903E+00  0.7531495896E-17 -0.7195147165E+00
  0.6570463033E+00  0.1000000000E+01  0.3530110648E+00  0.6970215265E+00 -0.3619316798E-17 -0.6606716740E+00  0.6085919325E+15  0.7059359119E+00 -0.3716767062E-17 -0.6740543702E+00
  0.5429536967E+00  0.1000000000E+01  0.3530110648E+00  0.5850191247E+00 -0.6882272630E-17 -0.4246621058E+00  0.6085919325E+15  0.5833271616E+00 -0.6622897120E-17 -0.4405214218E+00
  0.4469889352E+00  0.1000000000E+01  0.3530110648E+00  0.3922530651E+00 -0.9704506057E-18 -0.4757695906E+00  0.6085919325E+15  0.3861623245E+00 -0.8661171959E-18 -0.4895623015E+00
  0.4000000000E+00  0.1000000000E+01  0.3530110648E+00  0.4515462235E+00 -0.4865994947E-18 -0.4303058972E+00  0.6085919325E+15  0.4423386631E+00 -0.4773714323E-18 -0.4428927119E+00
  0.8000000000E+00  0.1000000000E+01  0.4000000000E+00  0.8377773226E+00 -0.8866505200E-17 -0.9751802763E+00  0.6085919325E+15  0.8537633821E+00 -0.8875071162E-17 -0.9912430905E+00
  0.7530110648E+00  0.1000000000E+01  0.4000000000E+00  0.7703281514E+00 -0.4760897649E-17 -0.7791714014E+00  0.6085919325E+15  0.7879205440E+00 -0.4598147347E-17 -0.7955680685E+00
  0.6570463033E+00  0.1000000000E+01  0.4000000000E+00  0.6102499665E+00 -0.4210451616E-17 -0.7310479281E+00  0.6085919325E+15  0.6206361530E+00 -0.4295025800E-17 -0.7494243815E+00
  0.5429536967E+00  0.1000000000E+01  0.4000000000E+00  0.5112187061E+00  0.5253375490E-18 -0.5168564611E+00  0.6085919325E+15  0.5095870326E+00  0.3416417110E-18 -0.5376984229E+00
  0.4469889352E+00  0.1000000000E+01  0.4000000000E+00  0.4153452280E+00  0.1499187477E-17 -0.5300470101E+00  0.6085919325E+15  0.4075139573E+00  0.1377102487E-17 -0.5494460939E+00
  0.4000000000E+00  0.1000000000E+01  0.4000000000E+00  0.3967934342E+00  0.8147959788E-18 -0.4673056277E+00  0.6085919325E+15  0.3870259548E+00  0.8158373181E-18 -0.4852745392E+00
ZONE I=6, J=6, K=1, F=POINT
  0.1200000000E+01  0.1000000000E+01  0.0000000000E+00 -0.3322132455E-01  0.7799322703E-19  0.3727217494E-01  0.6085919325E+15 -0.3321695101E-01  0.7897426214E-19  0.3704259597E-01
  0.1153011065E+01  0.1000000000E+01  0.0000000000E+00 -0.5958715016E-02 -0.2018295094E-18 -0.9233454613E-02  0.6085919325E+15 -0.6141387691E-02 -0.2051535219E-18 -0.9213838599E-02
  0.1057046303E+01  0.1000000000E+01  0.0000000000E+00  0.1361138794E-02  0.1421120658E-19  0.5957574630E-02  0.6085919325E+15  0.1542084593E-02  0.1797492939E-19  0.5996242004E-02
  0.9429536967E+00  0.1000000000E+01  0.0000000000E+00 -0.3074544785E-02  0.2990418970E-19 -0.8062763510E-02  0.6085919325E+15 -0.2482911322E-02  0.3300495179E-19 -0.8033116931E-02
  0.8469889352E+00  0.1000000000E+01  0.0000000000E+00  0.2782831481E-02  0.1339186492E-20  0.5288457677E-02  0.6085919325E+15  0.3216077808E-02  0.1138578343E-20  0.5291304188E-02
  0.8000000000E+00  0.1000000000E+01  0.0000000000E+00 -0.2804244339E-01 -0.7421666399E-19 -0.1100145567E-01  0.6085919325E+15 -0.2777992483E-01 -0.7564718851E-19 -0.1075164794E-01
  0.1200000000E+01  0.1000000000E+01  0.4698893521E-01  0.1859380246E+01 -0.4204510074E-16 -0.1874113200E+00  0.6085919325E+15  0.1859699015E+01 -0.4203055696E-16 -0.1694199731E+00
  0.1153011065E+01  0.1000000000E+01  0.4698893521E-01  0.1216137033E+01 -0.2483196675E-16 -0.3889834904E-01  0.6085919325E+15  0.1215873910E+01 -0.2483861305E-16 -0.2300471782E-01
  0.1057046303E+01  0.1000000000E+01  0.4698893521E-01  0.1196023521E+01 -0.8172464626E-17 -0.8065564725E-01  0.6085919325E+15  0.1196503413E+01 -0.8162156802E-17 -0.6982457816E-01
  0.9429536967E+00  0.1000000000E+01  0.4698893521E-01  0.6975918492E+00 -0.1493938153E-16 -0.8037177626E-01  0.6085919325E+15  0.6996559933E+00 -0.1499326409E-16 -0.7659109066E-01
  0.8469889352E+00  0.1000000000E+01  0.4698893521E-01  0.6612648307E+00 -0.3155309797E-16 -0.9081126486E-01  0.6085919325E+15  0.6631349218E+00 -0.3163503344E-16 -0.9331434486E-01
  0.8000000000E+00  0.1000000000E+01  0.4698893521E-01  0.2773301373E+00 -0.2670847738E-16 -0.5430180620E-02  0.6085919325E+15  0.2789201514E+00 -0.2672631097E-16 -0.1026657718E-01
  0.1200000000E+01  0.1000000000E+01  0.1429536967E+00  0.3796535989E+01 -0.5712502158E-16 -0.4096238989E+00  0.6085919325E+15  0.3806500175E+01 -0.5728330478E-16 -0.3942037994E+00
  0.1153011065E+01  0.1000000000E+01  0.1429536967E+00  0.2473408077E+01 -0.6337192118E-16 -0.6098302605E+00  0.6085919325E+15  0.2481033980E+01 -0.6311678551E-16 -0.5979385657E+00
  0.1057046303E+01  0.1000000000E+01  0.1429536967E+00  0.2384436175E+01 -0.3367968911E-16 -0.4070273225E+00  0.6085919325E+15  0.2393760110E+01 -0.3371906395E-16 -0.4040266694E+00
  0.9429536967E+00  0.1000000000E+01  0.1429536967E+00  0.1427709104E+01 -0.3097997242E-16 -0.5740615074E+00  0.6085919325E+15  0.1437911334E+01 -0.3099963462E-16 -0.5811532037E+00
  0.8469889352E+00  0.1000000000E+01  0.1429536967E+00  0.1334354618E+01 -0.5002395851E-16 -0.3110710880E+00  0.6085919325E+15  0.1341909822E+01 -0.5014219750E-16 -0.3231994261E+00
  0.8000000000E+00  0.1000000000E+01  0.1429536967E+00  0.6708461444E+00 -0.5645714211E-16 -0.3236683746E+00  0.6085919325E+15  0.6782724059E+00 -0.5629298488E-16 -0.3376843033E+00
  0.1200000000E+01  0.1000000000E+01  0.2570463033E+00  0.2910225004E+01 -0.1897909493E-16 -0.1075442494E+01  0.6085919325E+15  0.2924324155E+01 -0.1894577056E-16 -0.1082705378E+01
  0.1153011065E+01  0.1000000000E+01  0.2570463033E+00  0.2559092535E+01 -0.5779131515E-16 -0.1324678584E+01  0.6085919325E+15  0.2573876184E+01 -0.5928479723E-16 -0.1333733034E+01
  0.1057046303E+01  0.1000000000E+01  0.2570463033E+00  0.2138463717E+01 -0.3900294849E-16 -0.9530940997E+00  0.6085919325E+15  0.2156308052E+01 -0.3899058577E-16 -0.9644824545E+00
  0.9429536967E+00  0.1000000000E+01  0.2570463033E+00  0.1603061319E+01 -0.3437464734E-16 -0.1131238137E+01  0.6085919325E+15  0.1617848291E+01 -0.3511354449E-16 -0.1143858711E+01
  0.8469889352E+00  0.1000000000E+01  0.2570463033E+00  0.1371027517E+01 -0.1036166451E-16 -0.6624249219E+00  0.6085919325E+15  0.1381175544E+01 -0.1023742586E-16 -0.6750823422E+00
  0.8000000000E+00  0.1000000000E+01  0.2570463033E+00  0.1078080251E+01 -0.9296404566E-17 -0.6539942993E+00  0.6085919325E+15  0.1090231252E+01 -0.9296376284E-17 -0.6674189193E+00
  0.1200000000E+01  0.1000000000E+01  0.3530110648E+00  0.2548735399E+01  0.2637460102E-17 -0.1781829898E+01  0.6085919325E+15  0.2564433186E+01  0.2658295430E-17 -0.1799846860E+01
  0.1153011065E+01  0.1000000000E+01  0.3530110648E+00  0.2036673001E+01 -0.1515834347E-16 -0.1715029279E+01  0.6085919325E+15  0.2050957894E+01 -0.1532031289E-16 -0.1731883727E+01
  0.1057046303E+01  0.1000000000E+01  0.3530110648E+00  0.1741150210E+01 -0.2308626554E-16 -0.1387352371E+01  0.6085919325E+15  0.1757325445E+01 -0.2294404679E-16 -0.1399957122E+01
  0.9429536967E+00  0.1000000000E+01  0.3530110648E+00  0.1265291821E+01 -0.2345051033E-16 -0.1358801055E+01  0.6085919325E+15  0.1279353976E+01 -0.2380982603E-16 -0.1368134685E+01
  0.8469889352E+00  0.1000000000E+01  0.3530110648E+00  0.1164565637E+01 -0.1387199494E-17 -0.9510311066E+00  0.6085919325E+15  0.1176458952E+01 -0.1014301860E-17 -0.9609450504E+00
  0.8000000000E+00  0.1000000000E+01  0.3530110648E+00  0.8400837075E+00  0.2765175717E-17 -0.8500828216E+00  0.6085919325E+15  0.8562193115E+00  0.2745007970E-17 -0.8613325895E+00
  0.1200000000E+01  0.1000000000E+01  0.4000000000E+00  0.2085897063E+01 -0.1797029021E-17 -0.1893689801E+01  0.6085919325E+15  0.2101108640E+01 -0.1779276707E-17 -0.1911639356E+01
  0.1153011065E+01  0.1000000000E+01  0.4000000000E+00  0.1933927353E+01 -0.4968337017E-17 -0.2011973676E+01  0.6085919325E+15  0.1946015074E+01 -0.4616019159E-17 -0.2029134680E+01
  0.1057046303E+01  0.1000000000E+01  0.4000000000E+00  0.1499633243E+01 -0.1668170409E-16 -0.1564174795E+01  0.6085919325E+15  0.1514304208E+01 -0.1655848648E-16 -0.1578889396E+01
  0.9429536967E+00  0.1000000000E+01  0.4000000000E+00  0.1147982236E+01 -0.2641370981E-16 -0.1514676742E+01  0.6085919325E+15  0.1162059152E+01 -0.2665604091E-16 -0.1529531804E+01
  0.8469889352E+00  0.1000000000E+01  0.4000000000E+00  0.9529815616E+00 -0.1525240114E-16 -0.1037787450E+01  0.6085919325E+15  0.9657113098E+00 -0.1516365070E-16 -0.1053433037E+01
  0.8000000000E+00  0.1000000000E+01  0.4000000000E+00  0.8303739872E+00 -0.8855068218E-17 -0.9780322414E+00  0.6085919325E+15  0.8474807372E+00 -0.8864710246E-17 -0.9939642869E+00
ZONE I=6, J=6, K=1, F=POINT
  0.1600000000E+01  0.1000000000E+01  0.0000000000E+00  0.1310625712E+00 -0.8680465304E-18 -0.7415293691E-01  0.6085919325E+15  0.1293251505E+00 -0.9872196422E-18 -0.7343792789E-01
  0.1553011065E+01  0.1000000000E+01  0.0000000000E+00  0.9609461667E-02 -0.1363210844E-17  0.4522010240E-01  0.6085919325E+15  0.8746200065E-02 -0.1353111317E-17  0.4522111885E-01
  0.1457046303E+01  0.1000000000E+01  0.0000000000E+00 -0.8506654884E-02 -0.4908912111E-19 -0.3200064361E-02  0.6085919325E+15 -0.9125635582E-02 -0.5047461284E-19 -0.3225195301E-02
  0.1342953697E+01  0.1000000000E+01  0.0000000000E+00  0.4077330309E-02  0.3616407349E-18  0.3002445516E-01  0.6085919325E+15  0.4104902695E-02  0.3641174738E-18  0.2995052561E-01
  0.1246988935E+01  0.1000000000E+01  0.0000000000E+00 -0.9452683884E-02  0.1080807716E-18 -0.7825041106E-02  0.6085919325E+15 -0.8756853940E-02  0.1079762722E-18 -0.7876006181E-02
  0.1200000000E+01  0.1000000000E+01  0.0000000000E+00  0.5729024876E-01  0.8224748059E-19  0.3724029514E-01  0.6085919325E+15  0.5758723279E-01  0.8362361422E-19  0.3700653236E-01
  0.1600000000E+01  0.1000000000E+01  0.4698893521E-01  0.2577600289E+01 -0.8585068799E-16  0.1901183730E+00  0.6085919325E+15  0.2573054318E+01 -0.8574050495E-16  0.2204172934E+00
  0.1553011065E+01  0.1000000000E+01  0.4698893521E-01  0.3026324261E+01 -0.4239745296E-16 -0.3103088223E+00  0.6085919325E+15  0.3025488310E+01 -0.4247450365E-16 -0.2813771535E+00
  0.1457046303E+01  0.1000000000E+01  0.4698893521E-01  0.2018012464E+01 -0.5890737573E-17 -0.1006824441E+00  0.6085919325E+15  0.2017332522E+01 -0.5824041930E-17 -0.7623801432E-01
  0.1342953697E+01  0.1000000000E+01  0.4698893521E-01  0.2031987365E+01  0.3230323587E-16 -0.6353262301E-01  0.6085919325E+15  0.2031531809E+01  0.3231035807E-16 -0.4052514534E-01
  0.1246988935E+01  0.1000000000E+01  0.4698893521E-01  0.1522895341E+01 -0.4358170790E-17 -0.9892145583E-02  0.6085919325E+15  0.1524289774E+01 -0.4315372989E-17  0.1013304137E-01
  0.1200000000E+01  0.1000000000E+01  0.4698893521E-01  0.1959617479E+01 -0.4636471601E-16 -0.1931255793E+00  0.6085919325E+15  0.1958649961E+01 -0.4634342859E-16 -0.1748047961E+00
  0.1600000000E+01  0.1000000000E+01  0.1429536967E+00  0.4358907852E+01 -0.2656441428E-15 -0.2002121440E+01  0.6085919325E+15  0.4343618943E+01 -0.2658359512E-15 -0.1980815561E+01
  0.1553011065E+01  0.1000000000E+01  0.1429536967E+00  0.6053484123E+01 -0.1625900571E-15 -0.1059120349E+01  0.6085919325E+15  0.6056598259E+01 -0.1628846230E-15 -0.1037838206E+01
  0.1457046303E+01  0.1000000000E+01  0.1429536967E+00  0.4032341526E+01  0.3256469141E-16 -0.9312047887E+00  0.6085919325E+15  0.4035072490E+01  0.3249575652E-16 -0.9095548369E+00
  0.1342953697E+01  0.1000000000E+01  0.1429536967E+00  0.4187009666E+01  0.1110328635E-15 -0.1050672014E+00  0.6085919325E+15  0.4188542879E+01  0.1110816507E-15 -0.8372685436E-01
  0.1246988935E+01  0.1000000000E+01  0.1429536967E+00  0.3073649739E+01  0.2931697114E-16 -0.5373702778E+00  0.6085919325E+15  0.3081570329E+01  0.2880895858E-16 -0.5186504969E+00
  0.1200000000E+01  0.1000000000E+01  0.1429536967E+00  0.3962346758E+01 -0.6136146866E-16 -0.4049169412E+00  0.6085919325E+15  0.3964314037E+01 -0.6140531572E-16 -0.3898846657E+00
  0.1600000000E+01  0.1000000000E+01  0.2570463033E+00  0.7514291260E+01  0.4392965896E-16 -0.3992204087E+01  0.6085919325E+15  0.7513038392E+01  0.4390056647E-16 -0.4005101492E+01
  0.1553011065E+01  0.1000000000E+01  0.2570463033E+00  0.6471739694E+01  0.6368652002E-16 -0.2598536734E+01  0.6085919325E+15  0.6473242102E+01  0.6354777752E-16 -0.2605598289E+01
  0.1457046303E+01  0.1000000000E+01  0.2570463033E+00  0.5255096884E+01  0.1619425448E-15 -0.2182917953E+01  0.6085919325E+15  0.5256520856E+01  0.1618219133E-15 -0.2184737614E+01
  0.1342953697E+01  0.1000000000E+01  0.2570463033E+00  0.4022546645E+01  0.1333302380E-15 -0.7651174937E+00  0.6085919325E+15  0.4027990482E+01  0.1335394585E-15 -0.7676121829E+00
  0.1246988935E+01  0.1000000000E+01  0.2570463033E+00  0.3153555442E+01  0.3665359367E-16 -0.1312812471E+01  0.6085919325E+15  0.3166830320E+01  0.3718564342E-16 -0.1318290587E+01
  0.1200000000E+01  0.1000000000E+01  0.2570463033E+00  0.2954064990E+01 -0.1934018341E-16 -0.1068111417E+01  0.6085919325E+15  0.2967828472E+01 -0.1932179427E-16 -0.1076850789E+01
  0.1600000000E+01  0.1000000000E+01  0.3530110648E+00  0.5257754434E+01  0.8019814811E-16 -0.4597970623E+01  0.6085919325E+15  0.5248883051E+01  0.8027754690E-16 -0.4610282580E+01
  0.1553011065E+01  0.1000000000E+01  0.3530110648E+00  0.5417361169E+01  0.9782068884E-16 -0.4051032355E+01  0.6085919325E+15  0.5414444655E+01  0.9781655482E-16 -0.4063447127E+01
  0.1457046303E+01  0.1000000000E+01  0.3530110648E+00  0.4370355642E+01  0.1319996112E-15 -0.3094756994E+01  0.6085919325E+15  0.4370897046E+01  0.1320248928E-15 -0.3106445418E+01
  0.1342953697E+01  0.1000000000E+01  0.3530110648E+00  0.3518012455E+01  0.1168629819E-15 -0.1893768304E+01  0.6085919325E+15  0.3526994259E+01  0.1172154465E-15 -0.1907074975E+01
  0.1246988935E+01  0.1000000000E+01  0.3530110648E+00  0.2513219486E+01  0.3544397108E-16 -0.1855915495E+01  0.6085919325E+15  0.2530442009E+01  0.3517465166E-16 -0.1872561528E+01
  0.1200000000E+01  0.1000000000E+01  0.3530110648E+00  0.2625826044E+01  0.2684813429E-17 -0.1782574875E+01  0.6085919325E+15  0.2640159516E+01  0.2690035958E-17 -0.1800227709E+01
  0.1600000000E+01  0.1000000000E+01  0.4000000000E+00  0.5287548995E+01  0.5565937982E-16 -0.5439736445E+01  0.6085919325E+15  0.5278039758E+01  0.5567150479E-16 -0.5458061893E+01
  0.1553011065E+01  0.1000000000E+01  0.4000000000E+00  0.4585060899E+01  0.8747797731E-16 -0.4077531396E+01  0.6085919325E+15  0.4583093494E+01  0.8772832546E-16 -0.4096528103E+01
  0.1457046303E+01  0.1000000000E+01  0.4000000000E+00  0.4082601198E+01  0.9830672511E-16 -0.3510884695E+01  0.6085919325E+15  0.4082699597E+01  0.9832662419E-16 -0.3528905966E+01
  0.1342953697E+01  0.1000000000E+01  0.4000000000E+00  0.3081189584E+01  0.1060890673E-15 -0.2117760379E+01  0.6085919325E+15  0.3091454718E+01  0.1064237102E-15 -0.2136095952E+01
  0.1246988935E+01  0.1000000000E+01  0.4000000000E+00  0.2438093243E+01  0.2346632101E-16 -0.2230927174E+01  0.6085919325E+15  0.2455833601E+01  0.2340083921E-16 -0.2248016868E+01
  0.1200000000E+01  0.1000000000E+01  0.4000000000E+00  0.2063422747E+01 -0.1547416292E-17 -0.1884120639E+01  0.6085919325E+15  0.2080384174E+01 -0.1538572277E-17 -0.1903250563E+01
ZONE I=6, J=6, K=1, F=POINT
  0.2000000000E+01  0.1000000000E+01  0.0000000000E+00  0.2401423743E+01  0.6783485222E-19  0.2123293562E+02  0.6085919325E+15  0.2429031501E+01  0.9130365093E-19  0.2215390960E+02
  0.1953011065E+01  0.1000000000E+01  0.0000000000E+00  0.1292561415E+01 -0.3711418228E-16 -0.1358804821E+00  0.6085919325E+15  0.1294692398E+01 -0.3591665423E-16 -0.1499565013E+00
  0.1857046303E+01  0.1000000000E+01  0.0000000000E+00 -0.3059876301E+00 -0.1878252035E-16  0.1541904473E+00  0.6085919325E+15 -0.3093550141E+00 -0.1944631266E-16  0.1519621678E+00
  0.1742953697E+01  0.1000000000E+01  0.0000000000E+00  0.1344910832E+00  0.3351190890E-18 -0.3924819851E-01  0.6085919325E+15  0.1332265073E+00  0.2626305161E-18 -0.3873893412E-01
  0.1646988935E+01  0.1000000000E+01  0.0000000000E+00 -0.1270903994E+00  0.4386219437E-18  0.6045118074E-01  0.6085919325E+15 -0.1286583112E+00  0.4078575036E-18  0.5951659474E-01
  0.1600000000E+01  0.1000000000E+01  0.0000000000E+00  0.8615778049E-01 -0.9474736188E-18 -0.8629645980E-01  0.6085919325E+15  0.8432769549E-01 -0.1068545915E-17 -0.8419689799E-01
  0.2000000000E+01  0.1000000000E+01  0.4698893521E-01 -0.1395985680E-01  0.7355936418E-18  0.4848412296E+02  0.6085919325E+15 -0.5680624242E-01  0.6782041501E-18  0.4865681636E+02
  0.1953011065E+01  0.1000000000E+01  0.4698893521E-01  0.1102927898E+02  0.1498314178E-15  0.1534402664E+01  0.6085919325E+15  0.1101028643E+02  0.1485401339E-15  0.1550792885E+01
  0.1857046303E+01  0.1000000000E+01  0.4698893521E-01  0.1182439449E+02  0.3322751578E-15 -0.1887896769E+01  0.6085919325E+15  0.1181875202E+02  0.3319695251E-15 -0.1875278732E+01
  0.1742953697E+01  0.1000000000E+01  0.4698893521E-01  0.5686425510E+01  0.8188287813E-17 -0.7341959687E+00  0.6085919325E+15  0.5684733954E+01  0.8531637818E-17 -0.7158615011E+00
  0.1646988935E+01  0.1000000000E+01  0.4698893521E-01  0.4119484062E+01 -0.1108076816E-15 -0.6957895064E+00  0.6085919325E+15  0.4112494680E+01 -0.1106425964E-15 -0.6657456155E+00
  0.1600000000E+01  0.1000000000E+01  0.4698893521E-01  0.2411396889E+01 -0.8285837672E-16  0.1757743517E+00  0.6085919325E+15  0.2415966314E+01 -0.8255230007E-16  0.2008956614E+00
  0.2000000000E+01  0.1000000000E+01  0.1429536967E+00 -0.2818993865E+00  0.2345654144E-17  0.5050408964E+02  0.6085919325E+15 -0.2583647414E+00  0.2299050465E-17  0.5043833543E+02
  0.1953011065E+01  0.1000000000E+01  0.1429536967E+00  0.2764020586E+01 -0.4968362441E-15  0.1653718395E+02  0.6085919325E+15  0.2734761135E+01 -0.4984006459E-15  0.1657203576E+02
  0.1857046303E+01  0.1000000000E+01  0.1429536967E+00  0.1225560913E+02 -0.2515512310E-15 -0.3945642756E+01  0.6085919325E+15  0.1223741951E+02 -0.2505901766E-15 -0.3932367848E+01
  0.1742953697E+01  0.1000000000E+01  0.1429536967E+00  0.8645073809E+01  0.1050897436E-15 -0.4682132687E+01  0.6085919325E+15  0.8636723834E+01  0.1032498105E-15 -0.4670465765E+01
  0.1646988935E+01  0.1000000000E+01  0.1429536967E+00  0.7520708390E+01 -0.1240698792E-15 -0.2417900853E+01  0.6085919325E+15  0.7508432251E+01 -0.1239469412E-15 -0.2398479960E+01
  0.1600000000E+01  0.1000000000E+01  0.1429536967E+00  0.3992144965E+01 -0.2818219161E-15 -0.1999761100E+01  0.6085919325E+15  0.4010560131E+01 -0.2825610844E-15 -0.1984511278E+01
  0.2000000000E+01  0.1000000000E+01  0.2570463033E+00  0.1518908150E-01  0.1017530557E-17  0.4987138675E+02  0.6085919325E+15  0.1461731588E-01  0.9299807780E-18  0.4987500835E+02