TITLE = "Generated from ../MESH/Convergence_0000000000.hmesh and Convergence_0000002000.hsol"
VARIABLES = "x","y","z","veloT_x","veloT_y","veloT_z","slr_4","velo_x","velo_y","velo_z"
ZONE I=6, J=6, K=1, F=POINT
  0.4000000000E+00  0.1000000000E+01  0.0000000000E+00 -0.1106887487E-01  0.2948733913E-19  0.7470032860E-02  0.5866600159E+15 -0.1173877807E-01  0.2930179567E-19  0.7812662001E-02
  0.3530110648E+00  0.1000000000E+01  0.0000000000E+00 -0.1710499357E-03  0.8128632833E-20 -0.3832563988E-03  0.5866600159E+15 -0.1450664373E-02  0.8952222069E-20 -0.3841787286E-03
  0.2570463033E+00  0.1000000000E+01  0.0000000000E+00  0.1169290122E-02  0.1190138329E-20  0.2150570978E-02  0.5866600159E+15 -0.1860771347E-03  0.1287136885E-20  0.2191759982E-02
  0.1429536967E+00  0.1000000000E+01  0.0000000000E+00 -0.8370838789E-04  0.2688018375E-21 -0.1126971577E-02  0.5866600159E+15 -0.1315669415E-02  0.2850960963E-21 -0.1181849482E-02
  0.4698893521E-01  0.1000000000E+01  0.0000000000E+00  0.2321261506E-02 -0.1791856011E-20  0.1912076562E-02  0.5866600159E+15  0.1363924090E-02 -0.1890835009E-20  0.1982763890E-02
  0.0000000000E+00  0.1000000000E+01  0.0000000000E+00 -0.7457720232E-02  0.6988326653E-23  0.2013386678E-02  0.5866600159E+15 -0.7563297602E-02  0.8355395012E-23  0.2104416263E-02
  0.4000000000E+00  0.1000000000E+01  0.4698893521E-01  0.2638453393E+00  0.2631064705E-17 -0.3636815375E-01  0.5866600159E+15  0.2624612572E+00  0.2639585441E-17 -0.5152255799E-01
  0.3530110648E+00  0.1000000000E+01  0.4698893521E-01  0.1274810906E+00  0.2265499323E-17 -0.1402719817E-02  0.5866600159E+15  0.1240367426E+00  0.2318186192E-17 -0.1458036147E-01
  0.2570463033E+00  0.1000000000E+01  0.4698893521E-01  0.1034987983E+00  0.7528750133E-18 -0.1449570168E-01  0.5866600159E+15  0.9953520331E-01  0.7478623626E-18 -0.2148716622E-01
  0.1429536967E+00  0.1000000000E+01  0.4698893521E-01  0.1076008729E-01  0.1138803968E-18 -0.1145029989E-01  0.5866600159E+15  0.7442261722E-02  0.1041418895E-18 -0.1253723005E-01
  0.4698893521E-01  0.1000000000E+01  0.4698893521E-01  0.1665365583E-02  0.7497773121E-20 -0.1165535607E-01  0.5866600159E+15 -0.7802380927E-03  0.4734678753E-20 -0.9961408689E-02
  0.0000000000E+00  0.1000000000E+01  0.4698893521E-01 -0.1794765997E-01  0.8445986144E-21  0.1905121995E-02  0.5866600159E+15 -0.1808752598E-01  0.9185101351E-21  0.2833842232E-02
  0.4000000000E+00  0.1000000000E+01  0.1429536967E+00  0.5589138840E+00  0.8778607016E-17 -0.8978632918E-01  0.5866600159E+15  0.5543444981E+00  0.8712535366E-17 -0.1125823330E+00
  0.3530110648E+00  0.1000000000E+01  0.1429536967E+00  0.3108409901E+00  0.4801823229E-17 -0.1305988809E+00  0.5866600159E+15  0.3015358966E+00  0.4948928558E-17 -0.1513336473E+00
  0.2570463033E+00  0.1000000000E+01  0.1429536967E+00  0.2289797355E+00  0.1482656876E-17 -0.8163802810E-01  0.5866600159E+15  0.2178679623E+00  0.1470699992E-17 -0.9645948925E-01
  0.1429536967E+00  0.1000000000E+01  0.1429536967E+00  0.4341243255E-01  0.3231164078E-18 -0.1092143286E+00  0.5866600159E+15  0.3382399332E-01  0.3199995200E-18 -0.1148074894E+00
  0.4698893521E-01  0.1000000000E+01  0.1429536967E+00 -0.1970277996E-02  0.3850692510E-19 -0.1433598612E-01  0.5866600159E+15 -0.7640920955E-02  0.3406296205E-19 -0.1318978061E-01
  0.0000000000E+00  0.1000000000E+01  0.1429536967E+00 -0.2126955506E-01 -0.3940268321E-21 -0.1769596294E-02  0.5866600159E+15 -0.2125399418E-01 -0.7001462812E-22 -0.6423274547E-03
  0.4000000000E+00  0.1000000000E+01  0.2570463033E+00  0.5933205791E+00  0.1415590195E-17 -0.2893961832E+00  0.5866600159E+15  0.5845187143E+00  0.1414895881E-17 -0.3087380138E+00
  0.3530110648E+00  0.1000000000E+01  0.2570463033E+00  0.4431173242E+00  0.8886509979E-18 -0.3431407808E+00  0.5866600159E+15  0.4295789381E+00  0.6390547828E-18 -0.3604666404E+00
  0.2570463033E+00  0.1000000000E+01  0.2570463033E+00  0.2936943706E+00  0.3022604502E-18 -0.2442682882E+00  0.5866600159E+15  0.2746408267E+00  0.3057691043E-18 -0.2564084981E+00
  0.1429536967E+00  0.1000000000E+01  0.2570463033E+00  0.9697829287E-01  0.4774870390E-18 -0.2645304300E+00  0.5866600159E+15  0.7769943571E-01  0.4796255072E-18 -0.2669308283E+00
  0.4698893521E-01  0.1000000000E+01  0.2570463033E+00  0.1475853402E-01  0.5783932030E-18 -0.5402886880E-01  0.5866600159E+15  0.4644514554E-02  0.6111563722E-18 -0.5155586168E-01
  0.0000000000E+00  0.1000000000E+01  0.2570463033E+00 -0.1413751030E-01 -0.2582897091E-20 -0.1771353356E-02  0.5866600159E+15 -0.1417468240E-01 -0.2968264674E-20 -0.3874144852E-03
  0.4000000000E+00  0.1000000000E+01  0.3530110648E+00  0.5983147477E+00  0.9048350329E-18 -0.4825815720E+00  0.5866600159E+15  0.5826906855E+00  0.9173823586E-18 -0.5011113027E+00
  0.3530110648E+00  0.1000000000E+01  0.3530110648E+00  0.4515229560E+00  0.6465802693E-18 -0.5120906369E+00  0.5866600159E+15  0.4325701023E+00  0.6465100869E-18 -0.5270332540E+00
  0.2570463033E+00  0.1000000000E+01  0.3530110648E+00  0.3084103642E+00 -0.4534768524E-18 -0.4085360798E+00  0.5866600159E+15  0.2810706589E+00 -0.3487256583E-18 -0.4156556020E+00
  0.1429536967E+00  0.1000000000E+01  0.3530110648E+00  0.1053110950E+00  0.6710834751E-18 -0.3859413355E+00  0.5866600159E+15  0.7969012910E-01  0.6524830152E-18 -0.3839531459E+00
  0.4698893521E-01  0.1000000000E+01  0.3530110648E+00  0.1676792561E-01  0.1954996659E-18 -0.1125373922E+00  0.5866600159E+15  0.6676532937E-02  0.1601780862E-18 -0.1085939106E+00
  0.0000000000E+00  0.1000000000E+01  0.3530110648E+00 -0.1434175969E-01  0.5230471546E-20 -0.2085428026E-02  0.5866600159E+15 -0.1427129351E-01  0.5118535607E-20 -0.4070533096E-03
  0.4000000000E+00  0.1000000000E+01  0.4000000000E+00  0.5682979560E+00  0.2702643811E-17 -0.5787785435E+00  0.5866600159E+15  0.5485642154E+00  0.2708521035E-17 -0.5959773564E+00
  0.3530110648E+00  0.1000000000E+01  0.4000000000E+00  0.4759462965E+00  0.1998207933E-17 -0.5994689869E+00  0.5866600159E+15  0.4536748920E+00  0.2021441257E-17 -0.6132243474E+00
  0.2570463033E+00  0.1000000000E+01  0.4000000000E+00  0.3127336189E+00 -0.3348138534E-18 -0.4835980737E+00  0.5866600159E+15  0.2817222575E+00 -0.3583503120E-18 -0.4914563377E+00
  0.1429536967E+00  0.1000000000E+01  0.4000000000E+00  0.1176782583E+00  0.6599868675E-18 -0.4413552793E+00  0.5866600159E+15  0.8970440259E-01  0.6349895108E-18 -0.4432541679E+00
  0.4698893521E-01  0.1000000000E+01  0.4000000000E+00  0.1361768184E-01  0.7550006528E-19 -0.1365318615E+00  0.5866600159E+15  0.3298754056E-02  0.6830078331E-19 -0.1343929612E+00
  0.0000000000E+00  0.1000000000E+01  0.4000000000E+00 -0.6943994191E-02  0.7616249502E-20 -0.3181840836E-02  0.5866600159E+15 -0.6813221886E-02  0.7622800857E-20 -0.1961640534E-02
ZONE I=6, J=6, K=1, F=POINT
  0.8000000000E+00  0.1000000000E+01  0.0000000000E+00  0.1889897767E-01 -0.7778167565E-19 -0.1134327787E-01  0.5866600159E+15  0.1782180440E-01 -0.7984085887E-19 -0.1171511180E-01
  0.7530110648E+00  0.1000000000E+01  0.0000000000E+00  0.3114725576E-02  0.1104973992E-18  0.6014587403E-02  0.5866600159E+15  0.2410586914E-02  0.9692400076E-19  0.5950718022E-02
  0.6570463033E+00  0.1000000000E+01  0.0000000000E+00  0.2920746614E-03  0.2985781530E-19  0.2702568361E-03  0.5866600159E+15 -0.2950219416E-03  0.2355211099E-19  0.2144110169E-03
  0.5429536967E+00  0.1000000000E+01  0.0000000000E+00  0.1282524194E-02  0.3696004691E-19  0.6732622710E-02  0.5866600159E+15  0.7770763137E-03  0.2588834367E-19  0.6743013037E-02
  0.4469889352E+00  0.1000000000E+01  0.0000000000E+00 -0.1176997419E-02 -0.1620221674E-19  0.4420141369E-03  0.5866600159E+15 -0.1762296628E-02 -0.3344215947E-19  0.5305627575E-03
  0.4000000000E+00  0.1000000000E+01  0.0000000000E+00  0.1584475603E-01  0.3308721513E-19  0.7174362483E-02  0.5866600159E+15  0.1484426011E-01  0.3294113562E-19  0.7499903907E-02
  0.8000000000E+00  0.1000000000E+01  0.4698893521E-01  0.3156118327E+00 -0.2580549754E-16  0.2332059819E-01  0.5866600159E+15  0.3149654030E+00 -0.2579416006E-16  0.6236116236E-02
  0.7530110648E+00  0.1000000000E+01  0.4698893521E-01  0.5128722378E+00 -0.2542209557E-16 -0.3543521391E-01  0.5866600159E+15  0.5128961164E+00 -0.2540173703E-16 -0.5298409786E-01
  0.6570463033E+00  0.1000000000E+01  0.4698893521E-01  0.2989998916E+00 -0.5454571103E-17 -0.5458393335E-02  0.5866600159E+15  0.2985298619E+00 -0.5485447882E-17 -0.2212246953E-01
  0.5429536967E+00  0.1000000000E+01  0.4698893521E-01  0.3282975118E+00  0.4246399275E-17  0.2682080776E-02  0.5866600159E+15  0.3277227057E+00  0.4227202887E-17 -0.1272283932E-01
  0.4469889352E+00  0.1000000000E+01  0.4698893521E-01  0.1998992906E+00  0.3643497385E-17  0.8000446406E-02  0.5866600159E+15  0.1990597344E+00  0.3661576841E-17 -0.7558404757E-02
  0.4000000000E+00  0.1000000000E+01  0.4698893521E-01  0.3054856527E+00  0.2392084607E-17 -0.3712918299E-01  0.5866600159E+15  0.3034974287E+00  0.2404006247E-17 -0.5227836634E-01
  0.8000000000E+00  0.1000000000E+01  0.1429536967E+00  0.8729565365E+00 -0.5652118787E-16 -0.2975388908E+00  0.5866600159E+15  0.8748142524E+00 -0.5645185204E-16 -0.3320179785E+00
  0.7530110648E+00  0.1000000000E+01  0.1429536967E+00  0.1192588978E+01 -0.3696456226E-16 -0.1581011967E+00  0.5866600159E+15  0.1192481787E+01 -0.3673379503E-16 -0.1930751614E+00
  0.6570463033E+00  0.1000000000E+01  0.1429536967E+00  0.7946480564E+00 -0.6619349571E-17 -0.1595609483E+00  0.5866600159E+15  0.7911967636E+00 -0.6497016018E-17 -0.1915802638E+00
  0.5429536967E+00  0.1000000000E+01  0.1429536967E+00  0.7590119062E+00  0.8806396190E-17 -0.2397246725E-01  0.5866600159E+15  0.7565683579E+00  0.8718701114E-17 -0.5093982078E-01
  0.4469889352E+00  0.1000000000E+01  0.1429536967E+00  0.4799220411E+00  0.8427418164E-17 -0.1095661638E+00  0.5866600159E+15  0.4781724760E+00  0.8558281037E-17 -0.1336308191E+00
  0.4000000000E+00  0.1000000000E+01  0.1429536967E+00  0.6095271098E+00  0.9482312846E-17 -0.8924242535E-01  0.5866600159E+15  0.6049106127E+00  0.9417643665E-17 -0.1120457255E+00
  0.8000000000E+00  0.1000000000E+01  0.2570463033E+00  0.1545190297E+01 -0.1631325540E-16 -0.7284462795E+00  0.5866600159E+15  0.1550633604E+01 -0.1630728429E-16 -0.7617234560E+00
  0.7530110648E+00  0.1000000000E+01  0.2570463033E+00  0.1477553108E+01 -0.1207430626E-16 -0.4928115005E+00  0.5866600159E+15  0.1476917312E+01 -0.1255831790E-16 -0.5267206173E+00
  0.6570463033E+00  0.1000000000E+01  0.2570463033E+00  0.1121516139E+01 -0.7002594471E-17 -0.4552486794E+00  0.5866600159E+15  0.1113307397E+01 -0.6761807266E-17 -0.4876165952E+00
  0.5429536967E+00  0.1000000000E+01  0.2570463033E+00  0.8928232525E+00  0.3376588339E-18 -0.2153495389E+00  0.5866600159E+15  0.8848169877E+00  0.2099873714E-18 -0.2427500790E+00
  0.4469889352E+00  0.1000000000E+01  0.2570463033E+00  0.6397021131E+00  0.1803065196E-17 -0.3282229417E+00  0.5866600159E+15  0.6331531957E+00  0.1526435400E-17 -0.3499171632E+00
  0.4000000000E+00  0.1000000000E+01  0.2570463033E+00  0.6247448520E+00  0.1445047472E-17 -0.2887636431E+00  0.5866600159E+15  0.6154654267E+00  0.1441544974E-17 -0.3081382429E+00
  0.8000000000E+00  0.1000000000E+01  0.3530110648E+00  0.1490418954E+01 -0.3600304277E-17 -0.1056082779E+01  0.5866600159E+15  0.1499959088E+01 -0.3623974472E-17 -0.1082749465E+01
  0.7530110648E+00  0.1000000000E+01  0.3530110648E+00  0.1473487663E+01  0.6595053405E-18 -0.8628158229E+00  0.5866600159E+15  0.1475465271E+01  0.7416899314E-18 -0.8921877880E+00
  0.6570463033E+00  0.1000000000E+01  0.3530110648E+00  0.1123513968E+01 -0.4828630434E-17 -0.7266971961E+00  0.5866600159E+15  0.1114933307E+01 -0.4047920927E-17 -0.7601416894E+00
  0.5429536967E+00  0.1000000000E+01  0.3530110648E+00  0.8888088047E+00 -0.5971017399E-17 -0.4533116674E+00  0.5866600159E+15  0.8755736726E+00 -0.4869185197E-17 -0.4849674950E+00
  0.4469889352E+00  0.1000000000E+01  0.3530110648E+00  0.6144570993E+00  0.1137191240E-18 -0.5116813234E+00  0.5866600159E+15  0.6006377050E+00  0.2874520275E-18 -0.5347874182E+00
  0.4000000000E+00  0.1000000000E+01  0.3530110648E+00  0.6305111874E+00  0.8760772718E-18 -0.4823857286E+00  0.5866600159E+15  0.6157896838E+00  0.8886736763E-18 -0.5009149654E+00
  0.8000000000E+00  0.1000000000E+01  0.4000000000E+00  0.1478062255E+01 -0.1173955818E-16 -0.1254684157E+01  0.5866600159E+15  0.1490667689E+01 -0.1173582077E-16 -0.1281722095E+01
  0.7530110648E+00  0.1000000000E+01  0.4000000000E+00  0.1345741494E+01 -0.7476846865E-17 -0.1004325209E+01  0.5866600159E+15  0.1351276698E+01 -0.7428539057E-17 -0.1034826315E+01
  0.6570463033E+00  0.1000000000E+01  0.4000000000E+00  0.1062608652E+01 -0.4235245889E-17 -0.8659017700E+00  0.5866600159E+15  0.1055875619E+01 -0.4476890780E-17 -0.9047995392E+00
  0.5429536967E+00  0.1000000000E+01  0.4000000000E+00  0.8299528790E+00  0.2822606942E-17 -0.6094137403E+00  0.5866600159E+15  0.8134971066E+00  0.2010759509E-17 -0.6474657141E+00
  0.4469889352E+00  0.1000000000E+01  0.4000000000E+00  0.6467058624E+00  0.3850086535E-17 -0.6277372966E+00  0.5866600159E+15  0.6265534217E+00  0.3548259788E-17 -0.6528618631E+00
  0.4000000000E+00  0.1000000000E+01  0.4000000000E+00  0.5796012254E+00  0.2718327730E-17 -0.5780575568E+00  0.5866600159E+15  0.5600453915E+00  0.2722441670E-17 -0.5952774579E+00
ZONE I=6, J=6, K=1, F=POINT
  0.1200000000E+01  0.1000000000E+01  0.0000000000E+00 -0.3022679377E-01  0.6222639564E-19  0.3648853767E-01  0.5866600159E+15 -0.3104421952E-01  0.6391922469E-19  0.3625319012E-01
  0.1153011065E+01  0.1000000000E+01  0.0000000000E+00 -0.3486629752E-02 -0.1348084031E-18 -0.9659597297E-02  0.5866600159E+15 -0.4345581869E-02 -0.1703644135E-18 -0.9604766371E-02
  0.1057046303E+01  0.1000000000E+01  0.0000000000E+00  0.3785172238E-02  0.6733413861E-19  0.5986969437E-02  0.5866600159E+15  0.2867704087E-02  0.4284823789E-19  0.5951162638E-02
  0.9429536967E+00  0.1000000000E+01  0.0000000000E+00 -0.8309561812E-03  0.1126611772E-19 -0.8285341050E-02  0.5866600159E+15 -0.1814977311E-02  0.1345809271E-19 -0.8234377889E-02
  0.8469889352E+00  0.1000000000E+01  0.0000000000E+00  0.4465048676E-02 -0.1462534673E-19  0.5409395773E-02  0.5866600159E+15  0.3507587058E-02 -0.1415171166E-19  0.5268150646E-02
  0.8000000000E+00  0.1000000000E+01  0.0000000000E+00 -0.2627517080E-01 -0.8726668739E-19 -0.1082087047E-01  0.5866600159E+15 -0.2714051193E-01 -0.8947395279E-19 -0.1119831946E-01
  0.1200000000E+01  0.1000000000E+01  0.4698893521E-01  0.2003640230E+01 -0.4144102820E-16 -0.2046707701E+00  0.5866600159E+15  0.2005274200E+01 -0.4148538554E-16 -0.2063781335E+00
  0.1153011065E+01  0.1000000000E+01  0.4698893521E-01  0.1347203388E+01 -0.2631720753E-16 -0.5670899859E-01  0.5866600159E+15  0.1347962173E+01 -0.2633576802E-16 -0.5886322285E-01
  0.1057046303E+01  0.1000000000E+01  0.4698893521E-01  0.1259116939E+01 -0.1250427597E-16 -0.8795214209E-01  0.5866600159E+15  0.1260531780E+01 -0.1249591446E-16 -0.9252549013E-01
  0.9429536967E+00  0.1000000000E+01  0.4698893521E-01  0.7059466873E+00 -0.1637890253E-16 -0.7035804218E-01  0.5866600159E+15  0.7074190883E+00 -0.1642300780E-16 -0.8147223575E-01
  0.8469889352E+00  0.1000000000E+01  0.4698893521E-01  0.6326764734E+00 -0.3007927331E-16 -0.6447366754E-01  0.5866600159E+15  0.6330752162E+00 -0.3008307506E-16 -0.8047024725E-01
  0.8000000000E+00  0.1000000000E+01  0.4698893521E-01  0.2547649026E+00 -0.2511128006E-16  0.2536394301E-01  0.5866600159E+15  0.2548957624E+00 -0.2511487650E-16  0.8240252914E-02
  0.1200000000E+01  0.1000000000E+01  0.1429536967E+00  0.4401554779E+01 -0.5788820689E-16 -0.5323409721E+00  0.5866600159E+15  0.4410274393E+01 -0.5801424449E-16 -0.5303606621E+00
  0.1153011065E+01  0.1000000000E+01  0.1429536967E+00  0.3017147492E+01 -0.6854421988E-16 -0.7333874617E+00  0.5866600159E+15  0.3023585590E+01 -0.6823276081E-16 -0.7345639486E+00
  0.1057046303E+01  0.1000000000E+01  0.1429536967E+00  0.2763174672E+01 -0.4139012662E-16 -0.5181900213E+00  0.5866600159E+15  0.2772729016E+01 -0.4142608985E-16 -0.5293829317E+00
  0.9429536967E+00  0.1000000000E+01  0.1429536967E+00  0.1653930707E+01 -0.3720382201E-16 -0.6316754267E+00  0.5866600159E+15  0.1664343186E+01 -0.3722120167E-16 -0.6555497571E+00
  0.8469889352E+00  0.1000000000E+01  0.1429536967E+00  0.1466027109E+01 -0.5316962835E-16 -0.3101781912E+00  0.5866600159E+15  0.1471508061E+01 -0.5314017483E-16 -0.3425941814E+00
  0.8000000000E+00  0.1000000000E+01  0.1429536967E+00  0.7905355014E+00 -0.5870198665E-16 -0.2991101911E+00  0.5866600159E+15  0.7933518148E+00 -0.5866151872E-16 -0.3335624720E+00
  0.1200000000E+01  0.1000000000E+01  0.2570463033E+00  0.4010841770E+01 -0.1416222057E-16 -0.1422042765E+01  0.5866600159E+15  0.4021990010E+01 -0.1411109488E-16 -0.1422460398E+01
  0.1153011065E+01  0.1000000000E+01  0.2570463033E+00  0.3569802747E+01 -0.4963467980E-16 -0.1663673474E+01  0.5866600159E+15  0.3585734659E+01 -0.5125538337E-16 -0.1666984192E+01
  0.1057046303E+01  0.1000000000E+01  0.2570463033E+00  0.2935899257E+01 -0.4177735869E-16 -0.1272221763E+01  0.5866600159E+15  0.2959645964E+01 -0.4174017876E-16 -0.1283060411E+01
  0.9429536967E+00  0.1000000000E+01  0.2570463033E+00  0.2203720047E+01 -0.3733339064E-16 -0.1355075575E+01  0.5866600159E+15  0.2226628415E+01 -0.3852566340E-16 -0.1379088994E+01
  0.8469889352E+00  0.1000000000E+01  0.2570463033E+00  0.1835535129E+01 -0.1863682817E-16 -0.7848539244E+00  0.5866600159E+15  0.1848234035E+01 -0.1865114773E-16 -0.8164994692E+00
  0.8000000000E+00  0.1000000000E+01  0.2570463033E+00  0.1507703181E+01 -0.1646435002E-16 -0.7307635846E+00  0.5866600159E+15  0.1513361694E+01 -0.1646291694E-16 -0.7637792227E+00
  0.1200000000E+01  0.1000000000E+01  0.3530110648E+00  0.3836370228E+01  0.1469165728E-16 -0.2338008578E+01  0.5866600159E+15  0.3853126508E+01  0.1471950082E-16 -0.2352441428E+01
  0.1153011065E+01  0.1000000000E+01  0.3530110648E+00  0.3218154615E+01 -0.5443258272E-17 -0.2250813601E+01  0.5866600159E+15  0.3235359888E+01 -0.5646919568E-17 -0.2265346569E+01
  0.1057046303E+01  0.1000000000E+01  0.3530110648E+00  0.2722073614E+01 -0.2298829656E-16 -0.1883939387E+01  0.5866600159E+15  0.2752820863E+01 -0.2282783136E-16 -0.1897880567E+01
  0.9429536967E+00  0.1000000000E+01  0.3530110648E+00  0.2058203844E+01 -0.2518744954E-16 -0.1739611250E+01  0.5866600159E+15  0.2090523260E+01 -0.2605802602E-16 -0.1760783167E+01
  0.8469889352E+00  0.1000000000E+01  0.3530110648E+00  0.1817304899E+01 -0.8879781620E-17 -0.1214271455E+01  0.5866600159E+15  0.1833241764E+01 -0.8223003510E-17 -0.1239702035E+01
  0.8000000000E+00  0.1000000000E+01  0.3530110648E+00  0.1443951414E+01 -0.3539817393E-17 -0.1056265678E+01  0.5866600159E+15  0.1453732083E+01 -0.3570447597E-17 -0.1082995708E+01
  0.1200000000E+01  0.1000000000E+01  0.4000000000E+00  0.3385057253E+01  0.1506374457E-16 -0.2534641563E+01  0.5866600159E+15  0.3403277786E+01  0.1508214477E-16 -0.2556367785E+01
  0.1153011065E+01  0.1000000000E+01  0.4000000000E+00  0.3130514544E+01  0.6761518843E-17 -0.2629236351E+01  0.5866600159E+15  0.3146735705E+01  0.7042437251E-17 -0.2652199666E+01
  0.1057046303E+01  0.1000000000E+01  0.4000000000E+00  0.2508238530E+01 -0.1421398620E-16 -0.2136135349E+01  0.5866600159E+15  0.2539805953E+01 -0.1408662666E-16 -0.2159999137E+01
  0.9429536967E+00  0.1000000000E+01  0.4000000000E+00  0.1980873735E+01 -0.2611666850E-16 -0.1973606110E+01  0.5866600159E+15  0.2015016990E+01 -0.2697991446E-16 -0.1997318043E+01
  0.8469889352E+00  0.1000000000E+01  0.4000000000E+00  0.1645541719E+01 -0.1820420535E-16 -0.1374590346E+01  0.5866600159E+15  0.1662794687E+01 -0.1795678792E-16 -0.1399485819E+01
  0.8000000000E+00  0.1000000000E+01  0.4000000000E+00  0.1473239518E+01 -0.1171801226E-16 -0.1257693392E+01  0.5866600159E+15  0.1485642145E+01 -0.1171910177E-16 -0.1284512160E+01
ZONE I=6, J=6, K=1, F=POINT
  0.1600000000E+01  0.1000000000E+01  0.0000000000E+00  0.1311634109E+00 -0.8688994364E-18 -0.7280501129E-01  0.5866600159E+15  0.1301944323E+00 -0.9929244038E-18 -0.7302753315E-01
  0.1553011065E+01  0.1000000000E+01  0.0000000000E+00  0.1099450626E-01 -0.1347498129E-17  0.4532638384E-01  0.5866600159E+15  0.1040446687E-01 -0.1353767245E-17  0.4505956223E-01
  0.1457046303E+01  0.1000000000E+01  0.0000000000E+00 -0.6400232984E-02 -0.9985742535E-19 -0.3394791685E-02  0.5866600159E+15 -0.7357853268E-02 -0.9627237882E-19 -0.3399313970E-02
  0.1342953697E+01  0.1000000000E+01  0.0000000000E+00  0.6618573224E-02  0.4791186161E-18  0.2993003522E-01  0.5866600159E+15  0.5371896732E-02  0.4120512476E-18  0.2977300803E-01
  0.1246988935E+01  0.1000000000E+01  0.0000000000E+00 -0.6340096275E-02  0.1290462950E-18 -0.8323160687E-02  0.5866600159E+15 -0.7667661185E-02  0.1197299535E-18 -0.8271268552E-02
  0.1200000000E+01  0.1000000000E+01  0.0000000000E+00  0.5908876119E-01  0.6671997861E-19  0.3657131859E-01  0.5866600159E+15  0.5797004757E-01  0.6847419074E-19  0.3633568157E-01
  0.1600000000E+01  0.1000000000E+01  0.4698893521E-01  0.2882237430E+01 -0.8959911291E-16  0.1729286778E+00  0.5866600159E+15  0.2882284681E+01 -0.8958805591E-16  0.1794678679E+00
  0.1553011065E+01  0.1000000000E+01  0.4698893521E-01  0.3293853923E+01 -0.4574060523E-16 -0.3242930942E+00  0.5866600159E+15  0.3295542112E+01 -0.4569358994E-16 -0.3197664268E+00
  0.1457046303E+01  0.1000000000E+01  0.4698893521E-01  0.2267012952E+01 -0.5974749560E-17 -0.1145826009E+00  0.5866600159E+15  0.2268114711E+01 -0.5992241166E-17 -0.1118305013E+00
  0.1342953697E+01  0.1000000000E+01  0.4698893521E-01  0.2247215579E+01  0.3034022266E-16 -0.7610834997E-01  0.5866600159E+15  0.2247468143E+01  0.3034087735E-16 -0.7336966404E-01
  0.1246988935E+01  0.1000000000E+01  0.4698893521E-01  0.1714141855E+01 -0.4951263204E-17 -0.3082683963E-01  0.5866600159E+15  0.1715215901E+01 -0.4906531939E-17 -0.3055589856E-01
  0.1200000000E+01  0.1000000000E+01  0.4698893521E-01  0.2101325101E+01 -0.4564530393E-16 -0.2103478084E+00  0.5866600159E+15  0.2101286775E+01 -0.4566986103E-16 -0.2117001043E+00
  0.1600000000E+01  0.1000000000E+01  0.1429536967E+00  0.5644244681E+01 -0.2679251911E-15 -0.2071449735E+01  0.5866600159E+15  0.5633002516E+01 -0.2677346242E-15 -0.2070068273E+01
  0.1553011065E+01  0.1000000000E+01  0.1429536967E+00  0.7228171829E+01 -0.1525330020E-15 -0.1171574887E+01  0.5866600159E+15  0.7231729958E+01 -0.1527766063E-15 -0.1170488883E+01
  0.1457046303E+01  0.1000000000E+01  0.1429536967E+00  0.5060294095E+01  0.3113426758E-16 -0.1026216592E+01  0.5866600159E+15  0.5061876272E+01  0.3101937905E-16 -0.1024135279E+01
  0.1342953697E+01  0.1000000000E+01  0.1429536967E+00  0.5034331133E+01  0.1052196580E-15 -0.1980174508E+00  0.5866600159E+15  0.5034951479E+01  0.1052441879E-15 -0.1940529571E+00
  0.1246988935E+01  0.1000000000E+01  0.1429536967E+00  0.3782050680E+01  0.2849238872E-16 -0.6622635349E+00  0.5866600159E+15  0.3787576573E+01  0.2821100965E-16 -0.6581664818E+00
  0.1200000000E+01  0.1000000000E+01  0.1429536967E+00  0.4564525654E+01 -0.6201918658E-16 -0.5273784231E+00  0.5866600159E+15  0.4565424547E+01 -0.6206659058E-16 -0.5259057684E+00
  0.1600000000E+01  0.1000000000E+01  0.2570463033E+00  0.9709692265E+01  0.6929282482E-16 -0.4241138028E+01  0.5866600159E+15  0.9719170354E+01  0.6925674317E-16 -0.4249985970E+01
  0.1553011065E+01  0.1000000000E+01  0.2570463033E+00  0.8521935327E+01  0.9370169129E-16 -0.2972635946E+01  0.5866600159E+15  0.8527536493E+01  0.9354817339E-16 -0.2977646969E+01
  0.1457046303E+01  0.1000000000E+01  0.2570463033E+00  0.7049279717E+01  0.1737644178E-15 -0.2529596538E+01  0.5866600159E+15  0.7049211446E+01  0.1736096769E-15 -0.2534736906E+01
  0.1342953697E+01  0.1000000000E+01  0.2570463033E+00  0.5487621713E+01  0.1326350327E-15 -0.1091894746E+01  0.5866600159E+15  0.5486842122E+01  0.1325354576E-15 -0.1094052502E+01
  0.1246988935E+01  0.1000000000E+01  0.2570463033E+00  0.4389459550E+01  0.3896056365E-16 -0.1664563914E+01  0.5866600159E+15  0.4396174793E+01  0.3927335528E-16 -0.1664006215E+01
  0.1200000000E+01  0.1000000000E+01  0.2570463033E+00  0.4050187537E+01 -0.1446985975E-16 -0.1413776254E+01  0.5866600159E+15  0.4062215885E+01 -0.1442370006E-16 -0.1416230171E+01
  0.1600000000E+01  0.1000000000E+01  0.3530110648E+00  0.7623138226E+01  0.1338863155E-15 -0.5046018420E+01  0.5866600159E+15  0.7628648441E+01  0.1338624457E-15 -0.5046014819E+01
  0.1553011065E+01  0.1000000000E+01  0.3530110648E+00  0.7683334063E+01  0.1491668668E-15 -0.4680867145E+01  0.5866600159E+15  0.7692512519E+01  0.1492229223E-15 -0.4684800762E+01
  0.1457046303E+01  0.1000000000E+01  0.3530110648E+00  0.6372522443E+01  0.1650555987E-15 -0.3737011046E+01  0.5866600159E+15  0.6373769841E+01  0.1651255339E-15 -0.3746203733E+01
  0.1342953697E+01  0.1000000000E+01  0.3530110648E+00  0.5178253001E+01  0.1335965607E-15 -0.2479405065E+01  0.5866600159E+15  0.5175889924E+01  0.1335986332E-15 -0.2490433401E+01
  0.1246988935E+01  0.1000000000E+01  0.3530110648E+00  0.3928421473E+01  0.4845165737E-16 -0.2424945504E+01  0.5866600159E+15  0.3936984642E+01  0.4840604788E-16 -0.2437547322E+01
  0.1200000000E+01  0.1000000000E+01  0.3530110648E+00  0.3912636484E+01  0.1477683031E-16 -0.2338779008E+01  0.5866600159E+15  0.3926600533E+01  0.1478003128E-16 -0.2352812143E+01
  0.1600000000E+01  0.1000000000E+01  0.4000000000E+00  0.7609601172E+01  0.1219955436E-15 -0.5943374094E+01  0.5866600159E+15  0.7617898751E+01  0.1219593754E-15 -0.5949408547E+01
  0.1553011065E+01  0.1000000000E+01  0.4000000000E+00  0.6812411910E+01  0.1499423848E-15 -0.4819792993E+01  0.5866600159E+15  0.6825141622E+01  0.1498783596E-15 -0.4825118710E+01
  0.1457046303E+01  0.1000000000E+01  0.4000000000E+00  0.6069491124E+01  0.1452125886E-15 -0.4299873549E+01  0.5866600159E+15  0.6072074367E+01  0.1452396616E-15 -0.4307227849E+01
  0.1342953697E+01  0.1000000000E+01  0.4000000000E+00  0.4735591319E+01  0.1330275984E-15 -0.2827031416E+01  0.5866600159E+15  0.4735896614E+01  0.1327866048E-15 -0.2842818991E+01
  0.1246988935E+01  0.1000000000E+01  0.4000000000E+00  0.3859487869E+01  0.4265081335E-16 -0.2897970104E+01  0.5866600159E+15  0.3869106729E+01  0.4270790489E-16 -0.2917739634E+01
  0.1200000000E+01  0.1000000000E+01  0.4000000000E+00  0.3360980576E+01  0.1532372392E-16 -0.2524053001E+01  0.5866600159E+15  0.3379316551E+01  0.1532474829E-16 -0.2547599875E+01
ZONE I=6, J=6, K=1, F=POINT
  0.2000000000E+01  0.1000000000E+01  0.0000000000E+00  0.2402729133E+01  0.7326782806E-19  0.2123409300E+02  0.5866600158E+15  0.2430744889E+01  0.9438364647E-19  0.2215537684E+02
  0.1953011065E+01  0.1000000000E+01  0.0000000000E+00  0.1291203972E+01 -0.3736527519E-16 -0.1367956952E+00  0.5866600159E+15  0.1296148780E+01 -0.3612140233E-16 -0.1499197403E+00
  0.1857046303E+01  0.1000000000E+01  0.0000000000E+00 -0.3067228746E+00 -0.1882981987E-16  0.1521977125E+00  0.5866600159E+15 -0.3066845600E+00 -0.1927683209E-16  0.1506209376E+00
  0.1742953697E+01  0.1000000000E+01  0.0000000000E+00  0.1348117292E+00  0.2593695304E-18 -0.3795176817E-01  0.5866600159E+15  0.1355637878E+00  0.1660995930E-18 -0.3760035532E-01
  0.1646988935E+01  0.1000000000E+01  0.0000000000E+00 -0.1267258955E+00  0.3693163040E-18  0.6085695530E-01  0.5866600159E+15 -0.1266189187E+00  0.3325449743E-18  0.5973544139E-01
  0.1600000000E+01  0.1000000000E+01  0.0000000000E+00  0.8958441438E-01 -0.9464588119E-18 -0.8506721911E-01  0.5866600159E+15  0.8852164429E-01 -0.1073355957E-17 -0.8390480302E-01
  0.2000000000E+01  0.1000000000E+01  0.4698893521E-01 -0.1104857877E-01  0.7390731379E-18  0.4848286428E+02  0.5866600159E+15 -0.5337676822E-01  0.6860159899E-18  0.4865851840E+02
  0.1953011065E+01  0.1000000000E+01  0.4698893521E-01  0.1098648155E+02  0.1426373566E-15  0.1489847121E+01  0.5866600159E+15  0.1097725366E+02  0.1414253783E-15  0.1510074230E+01
  0.1857046303E+01  0.1000000000E+01  0.4698893521E-01  0.1178745846E+02  0.3088612735E-15 -0.1871216624E+01  0.5866600159E+15  0.1179258025E+02  0.3093389343E-15 -0.1866398841E+01
  0.1742953697E+01  0.1000000000E+01  0.4698893521E-01  0.5868152918E+01 -0.1917381653E-16 -0.7016957794E+00  0.5866600159E+15  0.5873361337E+01 -0.1884903126E-16 -0.7002284799E+00
  0.1646988935E+01  0.1000000000E+01  0.4698893521E-01  0.4393065301E+01 -0.1177078468E-15 -0.6916454145E+00  0.5866600159E+15  0.4393025067E+01 -0.1179021731E-15 -0.6844516668E+00
  0.1600000000E+01  0.1000000000E+01  0.4698893521E-01  0.2720958109E+01 -0.8679043329E-16  0.1585552400E+00  0.5866600159E+15  0.2730366925E+01 -0.8659166558E-16  0.1598292163E+00
  0.2000000000E+01  0.1000000000E+01  0.1429536967E+00 -0.2809876552E+00  0.2652936624E-17  0.5050328832E+02  0.5866600159E+15 -0.2564434271E+00  0.2664477913E-17  0.5044101146E+02
  0.1953011065E+01  0.1000000000E+01  0.1429536967E+00  0.2821351865E+01 -0.5124988804E-15  0.1653801746E+02  0.5866600159E+15  0.2810511009E+01 -0.5121278887E-15  0.1657859326E+02
  0.1857046303E+01  0.1000000000E+01  0.1429536967E+00  0.1278655391E+02 -0.2444408579E-15 -0.3577818692E+01  0.5866600159E+15  0.1278896031E+02 -0.2448530374E-15 -0.3568280845E+01
  0.1742953697E+01  0.1000000000E+01  0.1429536967E+00  0.9784494503E+01  0.2972683315E-16 -0.4388115842E+01  0.5866600159E+15  0.9788275571E+01  0.2941800668E-16 -0.4388542639E+01
  0.1646988935E+01  0.1000000000E+01  0.1429536967E+00  0.8776845181E+01 -0.1489718715E-15 -0.2380606729E+01  0.5866600159E+15  0.8775957853E+01 -0.1487054148E-15 -0.2378583940E+01
  0.1600000000E+01  0.1000000000E+01  0.1429536967E+00  0.5276920942E+01 -0.2842151883E-15 -0.2070775597E+01  0.5866600159E+15  0.5302858600E+01 -0.2844924539E-15 -0.2074634005E+01
  0.2000000000E+01  0.1000000000E+01  0.2570463033E+00  0.1866951883E-01  0.1065687756E-17  0.4987247831E+02  0.5866600159E+15  0.1788984899E-01  0.1005607786E-17  0.4987812690E+02