TITLE = "Generated from ../MESH/Convergence_0000000000.hmesh and Convergence_0000004000.hsol"
VARIABLES = "x","y","z","veloT_x","veloT_y","veloT_z","slr_4","velo_x","velo_y","velo_z"
ZONE I=6, J=6, K=1, F=POINT
  0.4000000000E+00  0.1000000000E+01  0.0000000000E+00 -0.1153796715E-01  0.2793585676E-19  0.7499052446E-02  0.6632547925E+15 -0.1151684620E-01  0.2824344795E-19  0.6716085116E-02
  0.3530110648E+00  0.1000000000E+01  0.0000000000E+00 -0.1011859536E-02  0.1102828239E-19 -0.3797368994E-03  0.6632547925E+15 -0.1226763970E-02  0.9597824581E-20 -0.4929745741E-03
  0.2570463033E+00  0.1000000000E+01  0.0000000000E+00  0.2809045695E-03  0.1993091851E-20  0.2316317772E-02  0.6632547925E+15 -0.2456552659E-04  0.1601636153E-20  0.2311101136E-02
  0.1429536967E+00  0.1000000000E+01  0.0000000000E+00 -0.7213100743E-03  0.4413368859E-21 -0.9872122603E-03  0.6632547925E+15 -0.1218294038E-02  0.3672403858E-21 -0.1015452355E-02
  0.4698893521E-01  0.1000000000E+01  0.0000000000E+00  0.1942542148E-02 -0.2100065203E-20  0.2014288928E-02  0.6632547925E+15  0.1405059286E-02 -0.2224399184E-20  0.2097902471E-02
  0.0000000000E+00  0.1000000000E+01  0.0000000000E+00 -0.7500533684E-02  0.1526032087E-22  0.2035027933E-02  0.6632547925E+15 -0.7551256899E-02  0.1395906278E-22  0.2132443600E-02
  0.4000000000E+00  0.1000000000E+01  0.4698893521E-01  0.2661974079E+00  0.2921755547E-17 -0.4560475874E-01  0.6632547925E+15  0.2664648890E+00  0.2920667665E-17 -0.4011072799E-01
  0.3530110648E+00  0.1000000000E+01  0.4698893521E-01  0.1278472869E+00  0.2628252638E-17 -0.8077431448E-02  0.6632547925E+15  0.1268819535E+00  0.2632970433E-17 -0.3327705440E-02
  0.2570463033E+00  0.1000000000E+01  0.4698893521E-01  0.1009436491E+00  0.1021399854E-17 -0.1783006551E-01  0.6632547925E+15  0.1002827298E+00  0.1028854913E-17 -0.1343342357E-01
  0.1429536967E+00  0.1000000000E+01  0.4698893521E-01  0.6795174054E-02  0.2590129430E-18 -0.1030020285E-01  0.6632547925E+15  0.5726428810E-02  0.2575976690E-18 -0.8003485348E-02
  0.4698893521E-01  0.1000000000E+01  0.4698893521E-01  0.2187270655E-03  0.5312075844E-19 -0.9523914215E-02  0.6632547925E+15 -0.1374588672E-02  0.5110749053E-19 -0.8175153596E-02
  0.0000000000E+00  0.1000000000E+01  0.4698893521E-01 -0.1803050211E-01  0.9490754265E-21  0.2267114188E-02  0.6632547925E+15 -0.1813752201E-01  0.9511648222E-21  0.2740611186E-02
  0.4000000000E+00  0.1000000000E+01  0.1429536967E+00  0.5884849266E+00  0.9436116533E-17 -0.1402575473E+00  0.6632547925E+15  0.5938096303E+00  0.9510601030E-17 -0.1162913280E+00
  0.3530110648E+00  0.1000000000E+01  0.1429536967E+00  0.3316473327E+00  0.5941807028E-17 -0.1764785868E+00  0.6632547925E+15  0.3336970029E+00  0.5800449850E-17 -0.1553685653E+00
  0.2570463033E+00  0.1000000000E+01  0.1429536967E+00  0.2333455698E+00  0.2268989032E-17 -0.1130191979E+00  0.6632547925E+15  0.2363067731E+00  0.2279561757E-17 -0.9797551862E-01
  0.1429536967E+00  0.1000000000E+01  0.1429536967E+00  0.3812706239E-01  0.8128774187E-18 -0.1190573199E+00  0.6632547925E+15  0.4113799103E-01  0.8173328974E-18 -0.1120299697E+00
  0.4698893521E-01  0.1000000000E+01  0.1429536967E+00 -0.3892431759E-02  0.1988993355E-18 -0.1188893030E-01  0.6632547925E+15 -0.4165419725E-02  0.1871197930E-18 -0.9434484385E-02
  0.0000000000E+00  0.1000000000E+01  0.1429536967E+00 -0.2133110537E-01  0.3339817699E-21 -0.1385067274E-02  0.6632547925E+15 -0.2128407223E-01  0.2151931730E-21 -0.7051547203E-03
  0.4000000000E+00  0.1000000000E+01  0.2570463033E+00  0.6705687278E+00  0.3330768498E-17 -0.4096546418E+00  0.6632547925E+15  0.6861080711E+00  0.3341679044E-17 -0.3710621593E+00
  0.3530110648E+00  0.1000000000E+01  0.2570463033E+00  0.4935158860E+00  0.1938450799E-17 -0.4511144033E+00  0.6632547925E+15  0.5055713428E+00  0.2422275864E-17 -0.4175540825E+00
  0.2570463033E+00  0.1000000000E+01  0.2570463033E+00  0.2987913411E+00  0.1827972093E-17 -0.3190081179E+00  0.6632547925E+15  0.3137360505E+00  0.1823398001E-17 -0.2973879267E+00
  0.1429536967E+00  0.1000000000E+01  0.2570463033E+00  0.8276991732E-01  0.1404224142E-17 -0.2923130604E+00  0.6632547925E+15  0.9518360292E-01  0.1401638512E-17 -0.2845701599E+00
  0.4698893521E-01  0.1000000000E+01  0.2570463033E+00  0.9182406003E-02  0.9619421776E-18 -0.5410561756E-01  0.6632547925E+15  0.1198971164E-01  0.9922621299E-18 -0.5178129354E-01
  0.0000000000E+00  0.1000000000E+01  0.2570463033E+00 -0.1405704311E-01 -0.4751767784E-20 -0.1313258017E-02  0.6632547925E+15 -0.1409355050E-01 -0.4209767052E-20 -0.5284938067E-03
  0.4000000000E+00  0.1000000000E+01  0.3530110648E+00  0.6989782790E+00  0.3783564417E-17 -0.6771092946E+00  0.6632547925E+15  0.7262183406E+00  0.3765591583E-17 -0.6369400441E+00
  0.3530110648E+00  0.1000000000E+01  0.3530110648E+00  0.5098471110E+00  0.3337125554E-17 -0.6850205399E+00  0.6632547925E+15  0.5334909446E+00  0.3346709387E-17 -0.6509796309E+00
  0.2570463033E+00  0.1000000000E+01  0.3530110648E+00  0.2993230946E+00  0.2133751888E-17 -0.5275179209E+00  0.6632547925E+15  0.3279389733E+00  0.1824419679E-17 -0.5061404363E+00
  0.1429536967E+00  0.1000000000E+01  0.3530110648E+00  0.7599577473E-01  0.1990813273E-17 -0.4324328985E+00  0.6632547925E+15  0.9763994440E-01  0.1934389033E-17 -0.4256773876E+00
  0.4698893521E-01  0.1000000000E+01  0.3530110648E+00  0.8493654195E-02  0.6032307268E-18 -0.1167917175E+00  0.6632547925E+15  0.1207172591E-01  0.5836156439E-18 -0.1145779500E+00
  0.0000000000E+00  0.1000000000E+01  0.3530110648E+00 -0.1424549287E-01  0.4224244682E-20 -0.1682047450E-02  0.6632547925E+15 -0.1430752917E-01  0.4794561957E-20 -0.6564632958E-03
  0.4000000000E+00  0.1000000000E+01  0.4000000000E+00  0.6765169560E+00  0.5911702848E-17 -0.8194880522E+00  0.6632547925E+15  0.7099619846E+00  0.5907855384E-17 -0.7803702788E+00
  0.3530110648E+00  0.1000000000E+01  0.4000000000E+00  0.5349705554E+00  0.5249125974E-17 -0.8164210700E+00  0.6632547925E+15  0.5642977947E+00  0.5182482085E-17 -0.7829546678E+00
  0.2570463033E+00  0.1000000000E+01  0.4000000000E+00  0.2942422555E+00  0.1820372166E-17 -0.6349439040E+00  0.6632547925E+15  0.3292262750E+00  0.1904532071E-17 -0.6134798958E+00
  0.1429536967E+00  0.1000000000E+01  0.4000000000E+00  0.8010820900E-01  0.2014393252E-17 -0.5053444618E+00  0.6632547925E+15  0.1060799522E+00  0.2108580619E-17 -0.4963993551E+00
  0.4698893521E-01  0.1000000000E+01  0.4000000000E+00  0.3098079006E-02  0.5821692176E-18 -0.1463558969E+00  0.6632547925E+15  0.7313551529E-02  0.5701967629E-18 -0.1432731531E+00
  0.0000000000E+00  0.1000000000E+01  0.4000000000E+00 -0.6780905474E-02  0.8452558701E-20 -0.3343182797E-02  0.6632547925E+15 -0.6906071131E-02  0.8523210309E-20 -0.2133971649E-02
ZONE I=6, J=6, K=1, F=POINT
  0.8000000000E+00  0.1000000000E+01  0.0000000000E+00  0.1752950270E-01 -0.8421774945E-19 -0.1209649534E-01  0.6632547925E+15  0.1843705787E-01 -0.8636406606E-19 -0.1138313466E-01
  0.7530110648E+00  0.1000000000E+01  0.0000000000E+00  0.2063175892E-02  0.8489268683E-19  0.5944285245E-02  0.6632547925E+15  0.2884942674E-02  0.1011679625E-18  0.6011973245E-02
  0.6570463033E+00  0.1000000000E+01  0.0000000000E+00 -0.3170773425E-03  0.2521669321E-19  0.2415149946E-03  0.6632547925E+15  0.1007883762E-03  0.2882889052E-19  0.1973977431E-03
  0.5429536967E+00  0.1000000000E+01  0.0000000000E+00  0.1069237981E-02  0.3642216219E-19  0.7094481844E-02  0.6632547925E+15  0.1157070235E-02  0.3541509278E-19  0.7062211502E-02
  0.4469889352E+00  0.1000000000E+01  0.0000000000E+00 -0.1407275347E-02 -0.1769268613E-19  0.6528841808E-03  0.6632547925E+15 -0.1580528689E-02 -0.2532205291E-19  0.4715139351E-03
  0.4000000000E+00  0.1000000000E+01  0.0000000000E+00  0.1531093135E-01  0.3154271428E-19  0.7196762359E-02  0.6632547925E+15  0.1500681820E-01  0.3189462965E-19  0.6418949226E-02
  0.8000000000E+00  0.1000000000E+01  0.4698893521E-01  0.3200223419E+00 -0.2410459119E-16  0.1239695416E-01  0.6632547925E+15  0.3223537349E+00 -0.2412736153E-16  0.2316318237E-01
  0.7530110648E+00  0.1000000000E+01  0.4698893521E-01  0.5167619964E+00 -0.2356978222E-16 -0.4912547110E-01  0.6632547925E+15  0.5184580204E+00 -0.2367872501E-16 -0.3709936889E-01
  0.6570463033E+00  0.1000000000E+01  0.4698893521E-01  0.2992309995E+00 -0.4830333389E-17 -0.2365304652E-01  0.6632547925E+15  0.3007948219E+00 -0.4792138743E-17 -0.9358107315E-02
  0.5429536967E+00  0.1000000000E+01  0.4698893521E-01  0.3301583255E+00  0.4188554089E-17 -0.1380130750E-01  0.6632547925E+15  0.3321580849E+00  0.4229803938E-17 -0.2927987592E-02
  0.4469889352E+00  0.1000000000E+01  0.4698893521E-01  0.2032566371E+00  0.3860579269E-17 -0.3337914459E-02  0.6632547925E+15  0.2045283467E+00  0.3847296132E-17  0.3182851543E-02
  0.4000000000E+00  0.1000000000E+01  0.4698893521E-01  0.3080994146E+00  0.2681462977E-17 -0.4636914405E-01  0.6632547925E+15  0.3085158660E+00  0.2679154453E-17 -0.4087446299E-01
  0.8000000000E+00  0.1000000000E+01  0.1429536967E+00  0.1032366634E+01 -0.5489272415E-16 -0.3756000177E+00  0.6632547925E+15  0.1031031491E+01 -0.5491657336E-16 -0.3425470489E+00
  0.7530110648E+00  0.1000000000E+01  0.1429536967E+00  0.1332625028E+01 -0.3489522238E-16 -0.2330963675E+00  0.6632547925E+15  0.1329525195E+01 -0.3511320685E-16 -0.1974048300E+00
  0.6570463033E+00  0.1000000000E+01  0.1429536967E+00  0.8918389008E+00 -0.4647816687E-17 -0.2312762273E+00  0.6632547925E+15  0.8932703956E+00 -0.4679271505E-17 -0.1925629373E+00
  0.5429536967E+00  0.1000000000E+01  0.1429536967E+00  0.8189625499E+00  0.9051106910E-17 -0.8684386413E-01  0.6632547925E+15  0.8269213972E+00  0.9300605327E-17 -0.5159103735E-01
  0.4469889352E+00  0.1000000000E+01  0.1429536967E+00  0.5183513975E+00  0.9465913533E-17 -0.1650909750E+00  0.6632547925E+15  0.5253895331E+00  0.9280691982E-17 -0.1371528491E+00
  0.4000000000E+00  0.1000000000E+01  0.1429536967E+00  0.6395773579E+00  0.1014072101E-16 -0.1397138206E+00  0.6632547925E+15  0.6444753445E+00  0.1021265568E-16 -0.1157449376E+00
  0.8000000000E+00  0.1000000000E+01  0.2570463033E+00  0.2017891095E+01 -0.1514652471E-16 -0.9373207350E+00  0.6632547925E+15  0.2008573365E+01 -0.1516309118E-16 -0.8896042508E+00
  0.7530110648E+00  0.1000000000E+01  0.2570463033E+00  0.1895733422E+01 -0.1176303206E-16 -0.6845844135E+00  0.6632547925E+15  0.1887342055E+01 -0.1099167051E-16 -0.6336701161E+00
  0.6570463033E+00  0.1000000000E+01  0.2570463033E+00  0.1428650758E+01 -0.4879727803E-17 -0.6211941532E+00  0.6632547925E+15  0.1429924895E+01 -0.4923817263E-17 -0.5684213023E+00
  0.5429536967E+00  0.1000000000E+01  0.2570463033E+00  0.1082085911E+01  0.1956906769E-17 -0.3611728418E+00  0.6632547925E+15  0.1096058623E+01  0.2176337339E-17 -0.3111321686E+00
  0.4469889352E+00  0.1000000000E+01  0.2570463033E+00  0.7490978588E+00  0.2697697062E-17 -0.4597986784E+00  0.6632547925E+15  0.7668913406E+00  0.3247203163E-17 -0.4163995618E+00
  0.4000000000E+00  0.1000000000E+01  0.2570463033E+00  0.7016937484E+00  0.3355681910E-17 -0.4090008630E+00  0.6632547925E+15  0.7177890337E+00  0.3368449377E-17 -0.3704509590E+00
  0.8000000000E+00  0.1000000000E+01  0.3530110648E+00  0.2217454287E+01 -0.5540026166E-18 -0.1402080747E+01  0.6632547925E+15  0.2197771871E+01 -0.5263757321E-18 -0.1351955538E+01
  0.7530110648E+00  0.1000000000E+01  0.3530110648E+00  0.2120328573E+01  0.5177530282E-17 -0.1182661376E+01  0.6632547925E+15  0.2106727212E+01  0.4417994725E-17 -0.1127969566E+01
  0.6570463033E+00  0.1000000000E+01  0.3530110648E+00  0.1609658124E+01 -0.1454898814E-17 -0.1001562344E+01  0.6632547925E+15  0.1611083791E+01 -0.2327255745E-17 -0.9433985472E+00
  0.5429536967E+00  0.1000000000E+01  0.3530110648E+00  0.1186702785E+01 -0.8882201339E-18 -0.6937952257E+00  0.6632547925E+15  0.1205997171E+01 -0.2540377658E-17 -0.6386805852E+00
  0.4469889352E+00  0.1000000000E+01  0.3530110648E+00  0.7713560398E+00  0.3655355596E-17 -0.7253110190E+00  0.6632547925E+15  0.7984641577E+00  0.3316673238E-17 -0.6795951798E+00
  0.4000000000E+00  0.1000000000E+01  0.3530110648E+00  0.7317426576E+00  0.3762708275E-17 -0.6769062413E+00  0.6632547925E+15  0.7585378208E+00  0.3741450524E-17 -0.6367402601E+00
  0.8000000000E+00  0.1000000000E+01  0.4000000000E+00  0.2301819457E+01 -0.6267199069E-17 -0.1677929138E+01  0.6632547925E+15  0.2276066650E+01 -0.6261548122E-17 -0.1625667960E+01
  0.7530110648E+00  0.1000000000E+01  0.4000000000E+00  0.2077770420E+01 -0.2544115966E-17 -0.1397963601E+01  0.6632547925E+15  0.2060553749E+01 -0.2737103435E-17 -0.1340191396E+01
  0.6570463033E+00  0.1000000000E+01  0.4000000000E+00  0.1616071085E+01 -0.1033257777E-17 -0.1205792393E+01  0.6632547925E+15  0.1616474653E+01 -0.7302495287E-18 -0.1142050543E+01
  0.5429536967E+00  0.1000000000E+01  0.4000000000E+00  0.1169001853E+01  0.5247878004E-17 -0.9075613539E+00  0.6632547925E+15  0.1191741907E+01  0.6463698917E-17 -0.8445994614E+00
  0.4469889352E+00  0.1000000000E+01  0.4000000000E+00  0.8212199044E+00  0.6109955565E-17 -0.8907208100E+00  0.6632547925E+15  0.8557355651E+00  0.6637855686E-17 -0.8422522573E+00
  0.4000000000E+00  0.1000000000E+01  0.4000000000E+00  0.6880497830E+00  0.5934924245E-17 -0.8187211358E+00  0.6632547925E+15  0.7214173964E+00  0.5930660302E-17 -0.7796726430E+00
ZONE I=6, J=6, K=1, F=POINT
  0.1200000000E+01  0.1000000000E+01  0.0000000000E+00 -0.3298665934E-01  0.5612132558E-19  0.3673465245E-01  0.6632547925E+15 -0.3140229785E-01  0.5821391629E-19  0.3703425911E-01
  0.1153011065E+01  0.1000000000E+01  0.0000000000E+00 -0.5981468647E-02 -0.2611763820E-18 -0.9610861481E-02  0.6632547925E+15 -0.4142671142E-02 -0.1815479718E-18 -0.9509539701E-02
  0.1057046303E+01  0.1000000000E+01  0.0000000000E+00  0.1557078014E-02  0.4397306834E-20  0.5946865850E-02  0.6632547925E+15  0.3104525044E-02  0.4354810299E-19  0.5881054374E-02
  0.9429536967E+00  0.1000000000E+01  0.0000000000E+00 -0.2780046771E-02  0.4944128451E-20 -0.8318352315E-02  0.6632547925E+15 -0.1724800865E-02  0.3994670931E-20 -0.8299988198E-02
  0.8469889352E+00  0.1000000000E+01  0.0000000000E+00  0.2856044521E-02 -0.1905582746E-19  0.5327071988E-02  0.6632547925E+15  0.3782019519E-02 -0.2206303979E-19  0.5427833915E-02
  0.8000000000E+00  0.1000000000E+01  0.0000000000E+00 -0.2765324652E-01 -0.9382704119E-19 -0.1155333034E-01  0.6632547925E+15 -0.2695852447E-01 -0.9613646282E-19 -0.1086687583E-01
  0.1200000000E+01  0.1000000000E+01  0.4698893521E-01  0.2164462661E+01 -0.4200787564E-16 -0.1916031564E+00  0.6632547925E+15  0.2167850633E+01 -0.4213753874E-16 -0.1930001117E+00
  0.1153011065E+01  0.1000000000E+01  0.4698893521E-01  0.1479173819E+01 -0.2651648495E-16 -0.4831470717E-01  0.6632547925E+15  0.1481612739E+01 -0.2659041061E-16 -0.4772732379E-01
  0.1057046303E+01  0.1000000000E+01  0.4698893521E-01  0.1345639552E+01 -0.1289150892E-16 -0.9074657232E-01  0.6632547925E+15  0.1347418104E+01 -0.1285971043E-16 -0.8398191588E-01
  0.9429536967E+00  0.1000000000E+01  0.4698893521E-01  0.7425588954E+00 -0.1524377788E-16 -0.8018406285E-01  0.6632547925E+15  0.7444443510E+00 -0.1528466866E-16 -0.6984787307E-01
  0.8469889352E+00  0.1000000000E+01  0.4698893521E-01  0.6454880661E+00 -0.2813411596E-16 -0.7496591803E-01  0.6632547925E+15  0.6471088371E+00 -0.2821444768E-16 -0.6440710666E-01
  0.8000000000E+00  0.1000000000E+01  0.4698893521E-01  0.2597174016E+00 -0.2341409810E-16  0.1445453824E-01  0.6632547925E+15  0.2612737093E+00 -0.2343382254E-16  0.2515657265E-01
  0.1200000000E+01  0.1000000000E+01  0.1429536967E+00  0.4986749587E+01 -0.5903975775E-16 -0.6161478512E+00  0.6632547925E+15  0.4991280363E+01 -0.5903562553E-16 -0.6063731051E+00
  0.1153011065E+01  0.1000000000E+01  0.1429536967E+00  0.3545247301E+01 -0.6862272924E-16 -0.8237171394E+00  0.6632547925E+15  0.3542682848E+01 -0.6889355727E-16 -0.8121996546E+00
  0.1057046303E+01  0.1000000000E+01  0.1429536967E+00  0.3170656202E+01 -0.4043060573E-16 -0.6141039662E+00  0.6632547925E+15  0.3165731439E+01 -0.4041270638E-16 -0.5967773097E+00
  0.9429536967E+00  0.1000000000E+01  0.1429536967E+00  0.1923320337E+01 -0.3591412282E-16 -0.7300108848E+00  0.6632547925E+15  0.1921970176E+01 -0.3589220029E-16 -0.7041443181E+00
  0.8469889352E+00  0.1000000000E+01  0.1429536967E+00  0.1653239971E+01 -0.5150835584E-16 -0.3921761869E+00  0.6632547925E+15  0.1653201551E+01 -0.5165647131E-16 -0.3613011690E+00
  0.8000000000E+00  0.1000000000E+01  0.1429536967E+00  0.9489775114E+00 -0.5710113769E-16 -0.3771906142E+00  0.6632547925E+15  0.9488119865E+00 -0.5715143127E-16 -0.3441187727E+00
  0.1200000000E+01  0.1000000000E+01  0.2570463033E+00  0.5136523220E+01 -0.8340443369E-17 -0.1728285315E+01  0.6632547925E+15  0.5131929160E+01 -0.8289787268E-17 -0.1715762351E+01
  0.1153011065E+01  0.1000000000E+01  0.2570463033E+00  0.4620912859E+01 -0.4332042711E-16 -0.1970919898E+01  0.6632547925E+15  0.4613305379E+01 -0.4220726881E-16 -0.1956244371E+01
  0.1057046303E+01  0.1000000000E+01  0.2570463033E+00  0.3816669065E+01 -0.3506937815E-16 -0.1570868352E+01  0.6632547925E+15  0.3804289439E+01 -0.3510340634E-16 -0.1550076515E+01
  0.9429536967E+00  0.1000000000E+01  0.2570463033E+00  0.2882500104E+01 -0.3410524694E-16 -0.1625409093E+01  0.6632547925E+15  0.2870702460E+01 -0.3345774294E-16 -0.1594840582E+01
  0.8469889352E+00  0.1000000000E+01  0.2570463033E+00  0.2365729320E+01 -0.1712145625E-16 -0.1008853096E+01  0.6632547925E+15  0.2356125853E+01 -0.1690277841E-16 -0.9667195607E+00
  0.8000000000E+00  0.1000000000E+01  0.2570463033E+00  0.1980688385E+01 -0.1531243009E-16 -0.9398252892E+00  0.6632547925E+15  0.1970954800E+01 -0.1531444500E-16 -0.8917510944E+00
  0.1200000000E+01  0.1000000000E+01  0.3530110648E+00  0.5318347848E+01  0.3003675866E-16 -0.2856217510E+01  0.6632547925E+15  0.5308782566E+01  0.3006748185E-16 -0.2849171796E+01
  0.1153011065E+01  0.1000000000E+01  0.3530110648E+00  0.4619553282E+01  0.9536904393E-17 -0.2769569661E+01  0.6632547925E+15  0.4603217570E+01  0.9776876705E-17 -0.2757699279E+01
  0.1057046303E+01  0.1000000000E+01  0.3530110648E+00  0.3939991054E+01 -0.1109540418E-16 -0.2384200075E+01  0.6632547925E+15  0.3920654769E+01 -0.1137652877E-16 -0.2362636302E+01
  0.9429536967E+00  0.1000000000E+01  0.3530110648E+00  0.3048620099E+01 -0.1836934084E-16 -0.2181516514E+01  0.6632547925E+15  0.3026734564E+01 -0.1788547628E-16 -0.2150816687E+01
  0.8469889352E+00  0.1000000000E+01  0.3530110648E+00  0.2624613632E+01 -0.3127686131E-17 -0.1586404972E+01  0.6632547925E+15  0.2600988803E+01 -0.4201923026E-17 -0.1542732857E+01
  0.8000000000E+00  0.1000000000E+01  0.3530110648E+00  0.2170396858E+01 -0.5055285015E-18 -0.1402327620E+01  0.6632547925E+15  0.2151268704E+01 -0.4625814452E-18 -0.1352257067E+01
  0.1200000000E+01  0.1000000000E+01  0.4000000000E+00  0.4984394665E+01  0.3592720389E-16 -0.3163839832E+01  0.6632547925E+15  0.4971252330E+01  0.3594478111E-16 -0.3148099822E+01
  0.1153011065E+01  0.1000000000E+01  0.4000000000E+00  0.4650892000E+01  0.2683351288E-16 -0.3258213056E+01  0.6632547925E+15  0.4629496174E+01  0.2650596595E-16 -0.3240593613E+01
  0.1057046303E+01  0.1000000000E+01  0.4000000000E+00  0.3842295899E+01  0.4876495370E-18 -0.2738630718E+01  0.6632547925E+15  0.3819454893E+01  0.4676208516E-18 -0.2714277390E+01
  0.9429536967E+00  0.1000000000E+01  0.4000000000E+00  0.3082931972E+01 -0.1711238605E-16 -0.2506257619E+01  0.6632547925E+15  0.3056037713E+01 -0.1619502745E-16 -0.2470813510E+01
  0.8469889352E+00  0.1000000000E+01  0.4000000000E+00  0.2555043863E+01 -0.1098507178E-16 -0.1828805186E+01  0.6632547925E+15  0.2524821746E+01 -0.1140850717E-16 -0.1781898818E+01
  0.8000000000E+00  0.1000000000E+01  0.4000000000E+00  0.2297266417E+01 -0.6251235530E-17 -0.1681189938E+01  0.6632547925E+15  0.2272221857E+01 -0.6239710082E-17 -0.1628537746E+01
ZONE I=6, J=6, K=1, F=POINT
  0.1600000000E+01  0.1000000000E+01  0.0000000000E+00  0.1286156117E+00 -0.9140248165E-18 -0.7176306477E-01  0.6632547925E+15  0.1303504451E+00 -0.1032461124E-17 -0.7190575847E-01
  0.1553011065E+01  0.1000000000E+01  0.0000000000E+00  0.8494246390E-02 -0.1220309512E-17  0.4528441753E-01  0.6632547925E+15  0.1015244923E-01 -0.1327795798E-17  0.4505813051E-01
  0.1457046303E+01  0.1000000000E+01  0.0000000000E+00 -0.9061793844E-02 -0.4786623235E-19 -0.3381027388E-02  0.6632547925E+15 -0.7468408798E-02 -0.1062615422E-18 -0.3320021360E-02
  0.1342953697E+01  0.1000000000E+01  0.0000000000E+00  0.3591367248E-02  0.3081185646E-18  0.2982531703E-01  0.6632547925E+15  0.5113823468E-02  0.3938487396E-18  0.2965663217E-01
  0.1246988935E+01  0.1000000000E+01  0.0000000000E+00 -0.9079861582E-02  0.1254272074E-18 -0.8197896412E-02  0.6632547925E+15 -0.7818540109E-02  0.1347014590E-18 -0.8096635129E-02
  0.1200000000E+01  0.1000000000E+01  0.0000000000E+00  0.5663883819E-01  0.6000284950E-19  0.3676095341E-01  0.6632547925E+15  0.5833095593E-01  0.6257485255E-19  0.3707254918E-01
  0.1600000000E+01  0.1000000000E+01  0.4698893521E-01  0.2989902637E+01 -0.8852955901E-16  0.2176345307E+00  0.6632547925E+15  0.2991526564E+01 -0.8857240521E-16  0.2167070908E+00
  0.1553011065E+01  0.1000000000E+01  0.4698893521E-01  0.3469361419E+01 -0.4435147844E-16 -0.2843069282E+00  0.6632547925E+15  0.3471067173E+01 -0.4429414283E-16 -0.2852593788E+00
  0.1457046303E+01  0.1000000000E+01  0.4698893521E-01  0.2482491260E+01 -0.4527467130E-17 -0.9151652608E-01  0.6632547925E+15  0.2484782990E+01 -0.4589816877E-17 -0.8972420527E-01
  0.1342953697E+01  0.1000000000E+01  0.4698893521E-01  0.2467660656E+01  0.2859541437E-16 -0.5935062208E-01  0.6632547925E+15  0.2470731172E+01  0.2862182737E-16 -0.5744878579E-01
  0.1246988935E+01  0.1000000000E+01  0.4698893521E-01  0.1894616820E+01 -0.7261905582E-17 -0.1886683173E-01  0.6632547925E+15  0.1897171183E+01 -0.7143604897E-17 -0.2009586951E-01
  0.1200000000E+01  0.1000000000E+01  0.4698893521E-01  0.2263306477E+01 -0.4624557035E-16 -0.1972749745E+00  0.6632547925E+15  0.2264352503E+01 -0.4633132538E-16 -0.1982972826E+00
  0.1600000000E+01  0.1000000000E+01  0.1429536967E+00  0.6285200557E+01 -0.2670011282E-15 -0.1851682472E+01  0.6632547925E+15  0.6271910890E+01 -0.2668322550E-15 -0.1848233202E+01
  0.1553011065E+01  0.1000000000E+01  0.1429536967E+00  0.7949927781E+01 -0.1431181353E-15 -0.1011414935E+01  0.6632547925E+15  0.7949615214E+01 -0.1432964528E-15 -0.1007497156E+01
  0.1457046303E+01  0.1000000000E+01  0.1429536967E+00  0.5849877234E+01  0.3146744179E-16 -0.9743440098E+00  0.6632547925E+15  0.5851161030E+01  0.3136197875E-16 -0.9700267669E+00
  0.1342953697E+01  0.1000000000E+01  0.1429536967E+00  0.5780365617E+01  0.1003706616E-15 -0.2225259846E+00  0.6632547925E+15  0.5784066243E+01  0.1005259784E-15 -0.2172694993E+00
  0.1246988935E+01  0.1000000000E+01  0.1429536967E+00  0.4421094398E+01  0.2683628413E-16 -0.7463965769E+00  0.6632547925E+15  0.4424167285E+01  0.2671852683E-16 -0.7380316060E+00
  0.1200000000E+01  0.1000000000E+01  0.1429536967E+00  0.5152563814E+01 -0.6320280104E-16 -0.6108089255E+00  0.6632547925E+15  0.5146535841E+01 -0.6307909873E-16 -0.6016884079E+00
  0.1600000000E+01  0.1000000000E+01  0.2570463033E+00  0.1107413880E+02  0.9923250308E-16 -0.3802929987E+01  0.6632547925E+15  0.1108336812E+02  0.9918104677E-16 -0.3794281799E+01
  0.1553011065E+01  0.1000000000E+01  0.2570463033E+00  0.9956756363E+01  0.1228232621E-15 -0.2701397406E+01  0.6632547925E+15  0.9960328343E+01  0.1228992552E-15 -0.2688399595E+01
  0.1457046303E+01  0.1000000000E+01  0.2570463033E+00  0.8515419414E+01  0.1847454285E-15 -0.2518716280E+01  0.6632547925E+15  0.8518184187E+01  0.1847898706E-15 -0.2507976431E+01
  0.1342953697E+01  0.1000000000E+01  0.2570463033E+00  0.6835314016E+01  0.1321946853E-15 -0.1287870097E+01  0.6632547925E+15  0.6838453447E+01  0.1323502889E-15 -0.1278072206E+01
  0.1246988935E+01  0.1000000000E+01  0.2570463033E+00  0.5591684801E+01  0.4127963968E-16 -0.1968898800E+01  0.6632547925E+15  0.5590208276E+01  0.4134102643E-16 -0.1957869596E+01
  0.1200000000E+01  0.1000000000E+01  0.2570463033E+00  0.5175702897E+01 -0.8638197930E-17 -0.1719041016E+01  0.6632547925E+15  0.5170734979E+01 -0.8576508515E-17 -0.1709086523E+01
  0.1600000000E+01  0.1000000000E+01  0.3530110648E+00  0.9431769403E+01  0.1970846731E-15 -0.4430900440E+01  0.6632547925E+15  0.9433541528E+01  0.1970010380E-15 -0.4413522509E+01
  0.1553011065E+01  0.1000000000E+01  0.3530110648E+00  0.9561374974E+01  0.2040456473E-15 -0.4323868524E+01  0.6632547925E+15  0.9566020595E+01  0.2040617675E-15 -0.4308397152E+01
  0.1457046303E+01  0.1000000000E+01  0.3530110648E+00  0.8248952624E+01  0.1969294304E-15 -0.3803913662E+01  0.6632547925E+15  0.8253354084E+01  0.1968897549E-15 -0.3789029651E+01
  0.1342953697E+01  0.1000000000E+01  0.3530110648E+00  0.6900774874E+01  0.1495021067E-15 -0.2856294905E+01  0.6632547925E+15  0.6907049068E+01  0.1495920412E-15 -0.2844358088E+01
  0.1246988935E+01  0.1000000000E+01  0.3530110648E+00  0.5490449227E+01  0.6307835436E-16 -0.2937329929E+01  0.6632547925E+15  0.5491256784E+01  0.6308923314E-16 -0.2929943223E+01
  0.1200000000E+01  0.1000000000E+01  0.3530110648E+00  0.5395576893E+01  0.3013625053E-16 -0.2856726608E+01  0.6632547925E+15  0.5382544701E+01  0.3014098050E-16 -0.2849327444E+01
  0.1600000000E+01  0.1000000000E+01  0.4000000000E+00  0.9554135048E+01  0.1976472263E-15 -0.5202502112E+01  0.6632547925E+15  0.9560771700E+01  0.1975687723E-15 -0.5193627202E+01
  0.1553011065E+01  0.1000000000E+01  0.4000000000E+00  0.8824753437E+01  0.2159885076E-15 -0.4405404409E+01  0.6632547925E+15  0.8831165924E+01  0.2160084196E-15 -0.4394278416E+01
  0.1457046303E+01  0.1000000000E+01  0.4000000000E+00  0.8079521463E+01  0.1901841408E-15 -0.4388980374E+01  0.6632547925E+15  0.8083233171E+01  0.1903021211E-15 -0.4375929834E+01
  0.1342953697E+01  0.1000000000E+01  0.4000000000E+00  0.6581836186E+01  0.1566443170E-15 -0.3284192113E+01  0.6632547925E+15  0.6591024214E+01  0.1571978725E-15 -0.3274238383E+01
  0.1246988935E+01  0.1000000000E+01  0.4000000000E+00  0.5543488562E+01  0.6353856370E-16 -0.3512470032E+01  0.6632547925E+15  0.5543340113E+01  0.6352625424E-16 -0.3498669901E+01
  0.1200000000E+01  0.1000000000E+01  0.4000000000E+00  0.4958251916E+01  0.3617823192E-16 -0.3152132953E+01  0.6632547925E+15  0.4946702875E+01  0.3618231512E-16 -0.3138881455E+01
ZONE I=6, J=6, K=1, F=POINT
  0.2000000000E+01  0.1000000000E+01  0.0000000000E+00  0.2402030310E+01  0.7355069230E-19  0.2123380180E+02  0.6632547925E+15  0.2430138664E+01  0.9463409407E-19  0.2215519494E+02
  0.1953011065E+01  0.1000000000E+01  0.0000000000E+00  0.1290370471E+01 -0.3732498727E-16 -0.1377124528E+00  0.6632547925E+15  0.1296541549E+01 -0.3611388627E-16 -0.1505534936E+00
  0.1857046303E+01  0.1000000000E+01  0.0000000000E+00 -0.3084786413E+00 -0.1890711985E-16  0.1519319291E+00  0.6632547925E+15 -0.3065410401E+00 -0.1925219868E-16  0.1504029326E+00
  0.1742953697E+01  0.1000000000E+01  0.0000000000E+00  0.1324862767E+00  0.2151658099E-18 -0.3741027969E-01  0.6632547925E+15  0.1357508940E+00  0.1141514203E-18 -0.3702526237E-01
  0.1646988935E+01  0.1000000000E+01  0.0000000000E+00 -0.1292602278E+00  0.3319035629E-18  0.6070022209E-01  0.6632547925E+15 -0.1260100105E+00  0.2909729213E-18  0.5968316951E-01
  0.1600000000E+01  0.1000000000E+01  0.0000000000E+00  0.8687100010E-01 -0.9926147737E-18 -0.8388103981E-01  0.6632547925E+15  0.8842714480E-01 -0.1113512279E-17 -0.8265105843E-01
  0.2000000000E+01  0.1000000000E+01  0.4698893521E-01 -0.1255623081E-01  0.7456215704E-18  0.4848138203E+02  0.6632547925E+15 -0.5496522727E-01  0.6851796793E-18  0.4865848243E+02
  0.1953011065E+01  0.1000000000E+01  0.4698893521E-01  0.1095434889E+02  0.1366390860E-15  0.1459431623E+01  0.6632547925E+15  0.1094639079E+02  0.1354604918E-15  0.1481716509E+01
  0.1857046303E+01  0.1000000000E+01  0.4698893521E-01  0.1164625793E+02  0.2896434015E-15 -0.1892855695E+01  0.6632547925E+15  0.1165284603E+02  0.2902593590E-15 -0.1883232039E+01
  0.1742953697E+01  0.1000000000E+01  0.4698893521E-01  0.5768181643E+01 -0.3884475351E-16 -0.6523652012E+00  0.6632547925E+15  0.5778332032E+01 -0.3852431315E-16 -0.6486551887E+00
  0.1646988935E+01  0.1000000000E+01  0.4698893521E-01  0.4457577771E+01 -0.1214456963E-15 -0.6374213477E+00  0.6632547925E+15  0.4463426396E+01 -0.1219513619E-15 -0.6364046346E+00
  0.1600000000E+01  0.1000000000E+01  0.4698893521E-01  0.2826061635E+01 -0.8568414016E-16  0.2034282804E+00  0.6632547925E+15  0.2836967486E+01 -0.8554399349E-16  0.1972125854E+00
  0.2000000000E+01  0.1000000000E+01  0.1429536967E+00 -0.2816896759E+00  0.2734010880E-17  0.5050144319E+02  0.6632547925E+15 -0.2573292463E+00  0.2757968124E-17  0.5044109919E+02
  0.1953011065E+01  0.1000000000E+01  0.1429536967E+00  0.2788643820E+01 -0.5138127007E-15  0.1639621106E+02  0.6632547925E+15  0.2776614818E+01 -0.5135669894E-15  0.1643914921E+02
  0.1857046303E+01  0.1000000000E+01  0.1429536967E+00  0.1272399275E+02 -0.2591773539E-15 -0.3611946441E+01  0.6632547925E+15  0.1272557638E+02 -0.2595066392E-15 -0.3597419610E+01
  0.1742953697E+01  0.1000000000E+01  0.1429536967E+00  0.9978026692E+01 -0.2368975708E-16 -0.4103719163E+01  0.6632547925E+15  0.9991259685E+01 -0.2291264067E-16 -0.4099435503E+01
  0.1646988935E+01  0.1000000000E+01  0.1429536967E+00  0.9289159895E+01 -0.1596384315E-15 -0.2106701206E+01  0.6632547925E+15  0.9299567187E+01 -0.1593497803E-15 -0.2101539289E+01
  0.1600000000E+01  0.1000000000E+01  0.1429536967E+00  0.5914082155E+01 -0.2835637897E-15 -0.1851652715E+01  0.6632547925E+15  0.5939897352E+01 -0.2838010700E-15 -0.1852836646E+01
  0.2000000000E+01  0.1000000000E+01  0.2570463033E+00  0.1901916521E-01  0.1114082685E-17  0.4987109134E+02  0.6632547925E+15  0.1811001748E-01  0.1074316713E-17  0.4987859567E+02