TITLE = "Generated from ../MESH/Convergence_0000000000.hmesh and Convergence_0000006300.hsol"
VARIABLES = "x","y","z","veloT_x","veloT_y","veloT_z","slr_4","velo_x","velo_y","velo_z"
ZONE I=6, J=6, K=1, F=POINT
  0.4000000000E+00  0.1000000000E+01  0.0000000000E+00 -0.1274507704E-01  0.2805709417E-19  0.7948627115E-02  0.6268520929E+15 -0.1273515500E-01  0.2747055670E-19  0.7362520871E-02
  0.3530110648E+00  0.1000000000E+01  0.0000000000E+00 -0.2290026350E-02  0.7704978035E-20 -0.1668053377E-03  0.6268520929E+15 -0.2403688434E-02  0.7967150991E-20 -0.2663921518E-03
  0.2570463033E+00  0.1000000000E+01  0.0000000000E+00 -0.9579112837E-03  0.8126160431E-21  0.2402162965E-02  0.6268520929E+15 -0.1179037971E-02  0.1123189010E-20  0.2378773556E-02
  0.1429536967E+00  0.1000000000E+01  0.0000000000E+00 -0.2029597333E-02  0.1308722518E-21 -0.1075894465E-02  0.6268520929E+15 -0.2418376015E-02  0.3123402279E-21 -0.1088757996E-02
  0.4698893521E-01  0.1000000000E+01  0.0000000000E+00  0.1017666660E-02 -0.2493102679E-20  0.2005162076E-02  0.6268520929E+15  0.5565547302E-03 -0.2628325530E-20  0.2132560963E-02
  0.0000000000E+00  0.1000000000E+01  0.0000000000E+00 -0.7578925449E-02  0.1307608735E-22  0.2138572661E-02  0.6268520929E+15 -0.7671786497E-02  0.1474620292E-22  0.2205419755E-02
  0.4000000000E+00  0.1000000000E+01  0.4698893521E-01  0.2727121938E+00  0.3284524221E-17 -0.3734288608E-01  0.6268520929E+15  0.2690469749E+00  0.3305820614E-17 -0.4533616645E-01
  0.3530110648E+00  0.1000000000E+01  0.4698893521E-01  0.1302193563E+00  0.2954584964E-17 -0.1317568758E-02  0.6268520929E+15  0.1256800489E+00  0.3009268212E-17 -0.6782498915E-02
  0.2570463033E+00  0.1000000000E+01  0.4698893521E-01  0.9911692294E-01  0.1270968555E-17 -0.1586703855E-01  0.6268520929E+15  0.9521496636E-01  0.1275145548E-17 -0.1652589037E-01
  0.1429536967E+00  0.1000000000E+01  0.4698893521E-01  0.2993396151E-02  0.3879278194E-18 -0.1173812053E-01  0.6268520929E+15 -0.9812562978E-03  0.3784400773E-18 -0.9614454961E-02
  0.4698893521E-01  0.1000000000E+01  0.4698893521E-01 -0.2381789313E-02  0.9568747161E-19 -0.9065822646E-02  0.6268520929E+15 -0.5634992869E-02  0.9122143545E-19 -0.6006108029E-02
  0.0000000000E+00  0.1000000000E+01  0.4698893521E-01 -0.1817864157E-01  0.8941994742E-21  0.3169066762E-02  0.6268520929E+15 -0.1830567037E-01  0.9518477956E-21  0.3627108712E-02
  0.4000000000E+00  0.1000000000E+01  0.1429536967E+00  0.6289513975E+00  0.1056346699E-16 -0.1223026523E+00  0.6268520929E+15  0.6224253618E+00  0.1047244508E-16 -0.1319323602E+00
  0.3530110648E+00  0.1000000000E+01  0.1429536967E+00  0.3614621472E+00  0.6649693821E-17 -0.1597495254E+00  0.6268520929E+15  0.3520681582E+00  0.6713873775E-17 -0.1680730133E+00
  0.2570463033E+00  0.1000000000E+01  0.1429536967E+00  0.2493578154E+00  0.2978048701E-17 -0.1016583996E+00  0.6268520929E+15  0.2408230147E+00  0.2973084408E-17 -0.1059826748E+00
  0.1429536967E+00  0.1000000000E+01  0.1429536967E+00  0.3897377296E-01  0.1214494170E-17 -0.1134131986E+00  0.6268520929E+15  0.3258308527E-01  0.1214950193E-17 -0.1127343920E+00
  0.4698893521E-01  0.1000000000E+01  0.1429536967E+00 -0.8496143893E-02  0.3225741469E-18 -0.7527019764E-02  0.6268520929E+15 -0.1227978268E-01  0.3103643284E-18 -0.4829646874E-02
  0.0000000000E+00  0.1000000000E+01  0.1429536967E+00 -0.2134941162E-01 -0.2234090257E-21 -0.5456734963E-04  0.6268520929E+15 -0.2129762986E-01  0.1001535272E-21  0.1112045631E-03
  0.4000000000E+00  0.1000000000E+01  0.2570463033E+00  0.7772111073E+00  0.5043532603E-17 -0.4180692921E+00  0.6268520929E+15  0.7657870896E+00  0.5035996159E-17 -0.4311385341E+00
  0.3530110648E+00  0.1000000000E+01  0.2570463033E+00  0.5796124968E+00  0.4057840476E-17 -0.4570229776E+00  0.6268520929E+15  0.5673331091E+00  0.3903702355E-17 -0.4677151484E+00
  0.2570463033E+00  0.1000000000E+01  0.2570463033E+00  0.3554910074E+00  0.2867566697E-17 -0.3202147792E+00  0.6268520929E+15  0.3424583506E+00  0.2869550021E-17 -0.3277445336E+00
  0.1429536967E+00  0.1000000000E+01  0.2570463033E+00  0.1016908664E+00  0.1985211469E-17 -0.2893055467E+00  0.6268520929E+15  0.9061495450E-01  0.1986793835E-17 -0.2917239022E+00
  0.4698893521E-01  0.1000000000E+01  0.2570463033E+00  0.5939355054E-02  0.1239996282E-17 -0.4777334995E-01  0.6268520929E+15  0.6067873342E-03  0.1252763763E-17 -0.4679151261E-01
  0.0000000000E+00  0.1000000000E+01  0.2570463033E+00 -0.1426930434E-01 -0.3929992352E-20  0.3549709486E-03  0.6268520929E+15 -0.1431963483E-01 -0.4273180838E-20 -0.1170952576E-03
  0.4000000000E+00  0.1000000000E+01  0.3530110648E+00  0.8676901330E+00  0.5471132738E-17 -0.7393479828E+00  0.6268520929E+15  0.8469231008E+00  0.5487582905E-17 -0.7651232126E+00
  0.3530110648E+00  0.1000000000E+01  0.3530110648E+00  0.6485100213E+00  0.4825798219E-17 -0.7362584662E+00  0.6268520929E+15  0.6298592309E+00  0.4822230089E-17 -0.7571146586E+00
  0.2570463033E+00  0.1000000000E+01  0.3530110648E+00  0.3940857377E+00  0.2651155572E-17 -0.5565251635E+00  0.6268520929E+15  0.3760011455E+00  0.2837496667E-17 -0.5694560642E+00
  0.1429536967E+00  0.1000000000E+01  0.3530110648E+00  0.1120333854E+00  0.2396061940E-17 -0.4414819906E+00  0.6268520929E+15  0.9576055646E-01  0.2432102731E-17 -0.4457809660E+00
  0.4698893521E-01  0.1000000000E+01  0.3530110648E+00  0.5808798434E-02  0.7007636931E-18 -0.1118766633E+00  0.6268520929E+15 -0.1932586568E-02  0.6966002713E-18 -0.1114037709E+00
  0.0000000000E+00  0.1000000000E+01  0.3530110648E+00 -0.1439350213E-01  0.5818913468E-20  0.7528393462E-03  0.6268520929E+15 -0.1443417040E-01  0.5530080312E-20 -0.2850532413E-03
  0.4000000000E+00  0.1000000000E+01  0.4000000000E+00  0.8703065417E+00  0.7419729275E-17 -0.9109598314E+00  0.6268520929E+15  0.8450845910E+00  0.7413896713E-17 -0.9439073030E+00
  0.3530110648E+00  0.1000000000E+01  0.4000000000E+00  0.6958458862E+00  0.6333433585E-17 -0.8869570738E+00  0.6268520929E+15  0.6729609199E+00  0.6406505540E-17 -0.9168419997E+00
  0.2570463033E+00  0.1000000000E+01  0.4000000000E+00  0.4073927468E+00  0.2858982373E-17 -0.6714428208E+00  0.6268520929E+15  0.3846390712E+00  0.2776520080E-17 -0.6910464473E+00
  0.1429536967E+00  0.1000000000E+01  0.4000000000E+00  0.1261046517E+00  0.2567020146E-17 -0.5153727891E+00  0.6268520929E+15  0.1060454814E+00  0.2490694140E-17 -0.5217036154E+00
  0.4698893521E-01  0.1000000000E+01  0.4000000000E+00  0.1738033455E-02  0.6692711473E-18 -0.1413406046E+00  0.6268520929E+15 -0.7187357097E-02  0.6776551110E-18 -0.1420692552E+00
  0.0000000000E+00  0.1000000000E+01  0.4000000000E+00 -0.6454607459E-02  0.8387748827E-20 -0.5059864987E-03  0.6268520929E+15 -0.6768626140E-02  0.8455852721E-20 -0.1999246716E-02
ZONE I=6, J=6, K=1, F=POINT
  0.8000000000E+00  0.1000000000E+01  0.0000000000E+00  0.1693485679E-01 -0.8478112616E-19 -0.1126583312E-01  0.6268520929E+15  0.1605142213E-01 -0.8774216939E-19 -0.1141040236E-01
  0.7530110648E+00  0.1000000000E+01  0.0000000000E+00  0.1232891130E-02  0.6134970016E-19  0.5999741249E-02  0.6268520929E+15  0.3723963055E-03  0.4187735745E-19  0.5957905343E-02
  0.6570463033E+00  0.1000000000E+01  0.0000000000E+00 -0.1371435236E-02  0.8547264239E-20  0.2915991567E-03  0.6268520929E+15 -0.2102865337E-02 -0.2237689020E-21  0.3501964509E-03
  0.5429536967E+00  0.1000000000E+01  0.0000000000E+00 -0.5369385115E-04  0.2053498669E-20  0.6969230840E-02  0.6268520929E+15 -0.5529655008E-03 -0.1005592025E-19  0.7010860016E-02
  0.4469889352E+00  0.1000000000E+01  0.0000000000E+00 -0.2659955642E-02 -0.6266533793E-19  0.7730110430E-03  0.6268520929E+15 -0.3121579918E-02 -0.7579347923E-19  0.7175031571E-03
  0.4000000000E+00  0.1000000000E+01  0.0000000000E+00  0.1390800066E-01  0.3177487661E-19  0.7644718933E-02  0.6268520929E+15  0.1353903242E-01  0.3122637652E-19  0.7059577970E-02
  0.8000000000E+00  0.1000000000E+01  0.4698893521E-01  0.3811550282E+00 -0.2285622449E-16  0.1716527615E-01  0.6268520929E+15  0.3770256510E+00 -0.2280321787E-16  0.9674968757E-02
  0.7530110648E+00  0.1000000000E+01  0.4698893521E-01  0.5692013933E+00 -0.2245680137E-16 -0.4215949255E-01  0.6268520929E+15  0.5653524056E+00 -0.2222659899E-16 -0.4993000206E-01
  0.6570463033E+00  0.1000000000E+01  0.4698893521E-01  0.3353124891E+00 -0.3989705103E-17 -0.1173048451E-01  0.6268520929E+15  0.3317909007E+00 -0.4046262879E-17 -0.2021379411E-01
  0.5429536967E+00  0.1000000000E+01  0.4698893521E-01  0.3516361981E+00  0.4675249221E-17 -0.5017983864E-03  0.6268520929E+15  0.3484990188E+00  0.4616586301E-17 -0.9392229544E-02
  0.4469889352E+00  0.1000000000E+01  0.4698893521E-01  0.2136347112E+00  0.4237179016E-17  0.7365951253E-02  0.6268520929E+15  0.2104203027E+00  0.4263884362E-17 -0.1165112153E-02
  0.4000000000E+00  0.1000000000E+01  0.4698893521E-01  0.3144725094E+00  0.3044818635E-17 -0.3810440642E-01  0.6268520929E+15  0.3110287468E+00  0.3064879690E-17 -0.4608713924E-01
  0.8000000000E+00  0.1000000000E+01  0.1429536967E+00  0.1229804632E+01 -0.5142268059E-16 -0.3690198350E+00  0.6268520929E+15  0.1226966589E+01 -0.5148626688E-16 -0.3770601623E+00
  0.7530110648E+00  0.1000000000E+01  0.1429536967E+00  0.1503299562E+01 -0.3197993123E-16 -0.2234915849E+00  0.6268520929E+15  0.1501139476E+01 -0.3190437779E-16 -0.2328852834E+00
  0.6570463033E+00  0.1000000000E+01  0.1429536967E+00  0.1017157309E+01 -0.2121364144E-17 -0.2170861379E+00  0.6268520929E+15  0.1014149318E+01 -0.2004089925E-17 -0.2279126742E+00
  0.5429536967E+00  0.1000000000E+01  0.1429536967E+00  0.9013521985E+00  0.1062932063E-16 -0.6764349559E-01  0.6268520929E+15  0.8982995259E+00  0.1053533737E-16 -0.7845898000E-01
  0.4469889352E+00  0.1000000000E+01  0.1429536967E+00  0.5705298670E+00  0.1036936987E-16 -0.1457311230E+00  0.6268520929E+15  0.5667046837E+00  0.1044877154E-16 -0.1563945521E+00
  0.4000000000E+00  0.1000000000E+01  0.1429536967E+00  0.6811500824E+00  0.1128405099E-16 -0.1217505049E+00  0.6268520929E+15  0.6742064975E+00  0.1118842386E-16 -0.1313873888E+00
  0.8000000000E+00  0.1000000000E+01  0.2570463033E+00  0.2402244536E+01 -0.9893923096E-17 -0.9849009593E+00  0.6268520929E+15  0.2402819975E+01 -0.9894996123E-17 -0.1000442764E+01
  0.7530110648E+00  0.1000000000E+01  0.2570463033E+00  0.2235315548E+01 -0.5971590755E-17 -0.7285170802E+00  0.6268520929E+15  0.2236322966E+01 -0.6208016146E-17 -0.7447208002E+00
  0.6570463033E+00  0.1000000000E+01  0.2570463033E+00  0.1685635455E+01 -0.1343235270E-17 -0.6549665691E+00  0.6268520929E+15  0.1685030315E+01 -0.1316048070E-17 -0.6746694860E+00
  0.5429536967E+00  0.1000000000E+01  0.2570463033E+00  0.1259636702E+01  0.4479193746E-17 -0.3800354055E+00  0.6268520929E+15  0.1255932159E+01  0.4422567197E-17 -0.4026101592E+00
  0.4469889352E+00  0.1000000000E+01  0.2570463033E+00  0.8763591829E+00  0.5352862632E-17 -0.4711968762E+00  0.6268520929E+15  0.8679049535E+00  0.5139708217E-17 -0.4882990821E+00
  0.4000000000E+00  0.1000000000E+01  0.2570463033E+00  0.8086963822E+00  0.5070828478E-17 -0.4173973018E+00  0.6268520929E+15  0.7964618053E+00  0.5061813792E-17 -0.4305238648E+00
  0.8000000000E+00  0.1000000000E+01  0.3530110648E+00  0.2757870511E+01  0.4629494841E-17 -0.1561330808E+01  0.6268520929E+15  0.2758975525E+01  0.4635359339E-17 -0.1592279347E+01
  0.7530110648E+00  0.1000000000E+01  0.3530110648E+00  0.2602514184E+01  0.9511257970E-17 -0.1334971969E+01  0.6268520929E+15  0.2604563366E+01  0.9588185334E-17 -0.1365654219E+01
  0.6570463033E+00  0.1000000000E+01  0.3530110648E+00  0.1978529946E+01  0.9760781833E-18 -0.1133623654E+01  0.6268520929E+15  0.1984902916E+01  0.1277489220E-17 -0.1168832188E+01
  0.5429536967E+00  0.1000000000E+01  0.3530110648E+00  0.1449086942E+01  0.2282753507E-18 -0.7945177656E+00  0.6268520929E+15  0.1443863422E+01  0.9206268246E-18 -0.8370526063E+00
  0.4469889352E+00  0.1000000000E+01  0.3530110648E+00  0.9669602299E+00  0.5157877024E-17 -0.8008050406E+00  0.6268520929E+15  0.9456176622E+00  0.5390324116E-17 -0.8332680861E+00
  0.4000000000E+00  0.1000000000E+01  0.3530110648E+00  0.9012639594E+00  0.5449702713E-17 -0.7391394987E+00  0.6268520929E+15  0.8800778905E+00  0.5466828184E-17 -0.7649216406E+00
  0.8000000000E+00  0.1000000000E+01  0.4000000000E+00  0.2909373004E+01 -0.1767742421E-17 -0.1908660599E+01  0.6268520929E+15  0.2912350491E+01 -0.1771807876E-17 -0.1944113739E+01
  0.7530110648E+00  0.1000000000E+01  0.4000000000E+00  0.2621141339E+01  0.1190615837E-17 -0.1621512352E+01  0.6268520929E+15  0.2623027123E+01  0.1331450537E-17 -0.1657251852E+01
  0.6570463033E+00  0.1000000000E+01  0.4000000000E+00  0.2033375377E+01  0.2426719726E-17 -0.1410563639E+01  0.6268520929E+15  0.2043930466E+01  0.2295002778E-17 -0.1448380020E+01
  0.5429536967E+00  0.1000000000E+01  0.4000000000E+00  0.1465805784E+01  0.8253347393E-17 -0.1069772409E+01  0.6268520929E+15  0.1460445703E+01  0.7721659424E-17 -0.1115745677E+01
  0.4469889352E+00  0.1000000000E+01  0.4000000000E+00  0.1043349552E+01  0.8494553570E-17 -0.1006904632E+01  0.6268520929E+15  0.1014448114E+01  0.7996540352E-17 -0.1044799970E+01
  0.4000000000E+00  0.1000000000E+01  0.4000000000E+00  0.8822598636E+00  0.7438486330E-17 -0.9101873870E+00  0.6268520929E+15  0.8574530215E+00  0.7434272250E-17 -0.9432021529E+00
ZONE I=6, J=6, K=1, F=POINT
  0.1200000000E+01  0.1000000000E+01  0.0000000000E+00 -0.3140575711E-01  0.5795537252E-19  0.3670317296E-01  0.6268520929E+15 -0.3290632268E-01  0.5914753783E-19  0.3650038373E-01
  0.1153011065E+01  0.1000000000E+01  0.0000000000E+00 -0.4909642543E-02 -0.2142352584E-18 -0.9694776824E-02  0.6268520929E+15 -0.6391961315E-02 -0.2898309107E-18 -0.9645123703E-02
  0.1057046303E+01  0.1000000000E+01  0.0000000000E+00  0.2067311263E-02  0.1650092119E-19  0.5844737439E-02  0.6268520929E+15  0.6994628309E-03 -0.1907993364E-19  0.5922023604E-02
  0.9429536967E+00  0.1000000000E+01  0.0000000000E+00 -0.2602821692E-02  0.3146697006E-20 -0.8384201066E-02  0.6268520929E+15 -0.3924794027E-02  0.1663914482E-20 -0.8338267331E-02
  0.8469889352E+00  0.1000000000E+01  0.0000000000E+00  0.2718281443E-02 -0.2433246587E-19  0.5376631196E-02  0.6268520929E+15  0.1398443465E-02 -0.2556522652E-19  0.5350995670E-02
  0.8000000000E+00  0.1000000000E+01  0.0000000000E+00 -0.2802474912E-01 -0.9438131510E-19 -0.1075138177E-01  0.6268520929E+15 -0.2931315130E-01 -0.9766587293E-19 -0.1088027125E-01
  0.1200000000E+01  0.1000000000E+01  0.4698893521E-01  0.2306086806E+01 -0.4209877945E-16 -0.1999904105E+00  0.6268520929E+15  0.2302900226E+01 -0.4192654079E-16 -0.2136902606E+00
  0.1153011065E+01  0.1000000000E+01  0.4698893521E-01  0.1608692838E+01 -0.2587029573E-16 -0.5428329448E-01  0.6268520929E+15  0.1603923628E+01 -0.2570518605E-16 -0.6644229753E-01
  0.1057046303E+01  0.1000000000E+01  0.4698893521E-01  0.1458120357E+01 -0.1150913403E-16 -0.8891148852E-01  0.6268520929E+15  0.1452970002E+01 -0.1158297477E-16 -0.9730167352E-01
  0.9429536967E+00  0.1000000000E+01  0.4698893521E-01  0.8314353663E+00 -0.1394441515E-16 -0.7585100036E-01  0.6268520929E+15  0.8269805184E+00 -0.1382097317E-16 -0.8215328924E-01
  0.8469889352E+00  0.1000000000E+01  0.4698893521E-01  0.7160706138E+00 -0.2695053971E-16 -0.7010497732E-01  0.6268520929E+15  0.7114566721E+00 -0.2673896721E-16 -0.7707018529E-01
  0.8000000000E+00  0.1000000000E+01  0.4698893521E-01  0.3201018848E+00 -0.2215855840E-16  0.1921539880E-01  0.6268520929E+15  0.3159517324E+00 -0.2210881092E-16  0.1168164930E-01
  0.1200000000E+01  0.1000000000E+01  0.1429536967E+00  0.5396088933E+01 -0.5797395184E-16 -0.6273950474E+00  0.6268520929E+15  0.5394303823E+01 -0.5780158073E-16 -0.6388253029E+00
  0.1153011065E+01  0.1000000000E+01  0.1429536967E+00  0.3927708348E+01 -0.6630806175E-16 -0.8388935835E+00  0.6268520929E+15  0.3920121522E+01 -0.6671620044E-16 -0.8490850182E+00
  0.1057046303E+01  0.1000000000E+01  0.1429536967E+00  0.3507507985E+01 -0.3630577273E-16 -0.6284482710E+00  0.6268520929E+15  0.3499911367E+01 -0.3630074411E-16 -0.6366811517E+00
  0.9429536967E+00  0.1000000000E+01  0.1429536967E+00  0.2200044851E+01 -0.3184796124E-16 -0.7370480560E+00  0.6268520929E+15  0.2195486996E+01 -0.3184445864E-16 -0.7443956678E+00
  0.8469889352E+00  0.1000000000E+01  0.1429536967E+00  0.1878723520E+01 -0.4804178434E-16 -0.3877879441E+00  0.6268520929E+15  0.1874995430E+01 -0.4792031272E-16 -0.3951490577E+00
  0.8000000000E+00  0.1000000000E+01  0.1429536967E+00  0.1146208465E+01 -0.5363031587E-16 -0.3706791831E+00  0.6268520929E+15  0.1144765373E+01 -0.5372140121E-16 -0.3786754273E+00
  0.1200000000E+01  0.1000000000E+01  0.2570463033E+00  0.5878287217E+01 -0.6042921502E-17 -0.1762829709E+01  0.6268520929E+15  0.5870070566E+01 -0.5980702150E-17 -0.1778791796E+01
  0.1153011065E+01  0.1000000000E+01  0.2570463033E+00  0.5329219012E+01 -0.3719324369E-16 -0.2023997769E+01  0.6268520929E+15  0.5318690449E+01 -0.3622162542E-16 -0.2039410882E+01
  0.1057046303E+01  0.1000000000E+01  0.2570463033E+00  0.4443164876E+01 -0.2872015416E-16 -0.1648157752E+01  0.6268520929E+15  0.4434467552E+01 -0.2874076604E-16 -0.1660736223E+01
  0.9429536967E+00  0.1000000000E+01  0.2570463033E+00  0.3402322684E+01 -0.2722218896E-16 -0.1699118405E+01  0.6268520929E+15  0.3397895562E+01 -0.2696145305E-16 -0.1710328798E+01
  0.8469889352E+00  0.1000000000E+01  0.2570463033E+00  0.2795667346E+01 -0.1057759430E-16 -0.1061553438E+01  0.6268520929E+15  0.2794056843E+01 -0.1083207849E-16 -0.1075795960E+01
  0.8000000000E+00  0.1000000000E+01  0.2570463033E+00  0.2364013424E+01 -0.1006048618E-16 -0.9875573421E+00  0.6268520929E+15  0.2365033812E+01 -0.1004581840E-16 -0.1002665113E+01
  0.1200000000E+01  0.1000000000E+01  0.3530110648E+00  0.6331117802E+01  0.3151837469E-16 -0.2944260864E+01  0.6268520929E+15  0.6321524911E+01  0.3154892696E-16 -0.2969498766E+01
  0.1153011065E+01  0.1000000000E+01  0.3530110648E+00  0.5591003391E+01  0.1321457645E-16 -0.2895537417E+01  0.6268520929E+15  0.5577402224E+01  0.1339729316E-16 -0.2919600386E+01
  0.1057046303E+01  0.1000000000E+01  0.3530110648E+00  0.4803871666E+01 -0.6385720916E-17 -0.2559120509E+01  0.6268520929E+15  0.4791019916E+01 -0.6082825974E-17 -0.2578981132E+01
  0.9429536967E+00  0.1000000000E+01  0.3530110648E+00  0.3766827418E+01 -0.1227353050E-16 -0.2366573436E+01  0.6268520929E+15  0.3765209518E+01 -0.1203876154E-16 -0.2385715879E+01
  0.8469889352E+00  0.1000000000E+01  0.3530110648E+00  0.3221330504E+01  0.1487841398E-17 -0.1751531949E+01  0.6268520929E+15  0.3226452305E+01  0.1864429498E-17 -0.1779313895E+01
  0.8000000000E+00  0.1000000000E+01  0.3530110648E+00  0.2710001239E+01  0.4687902206E-17 -0.1561659816E+01  0.6268520929E+15  0.2712425642E+01  0.4704536245E-17 -0.1592623269E+01
  0.1200000000E+01  0.1000000000E+01  0.4000000000E+00  0.6118378421E+01  0.3580610017E-16 -0.3287420574E+01  0.6268520929E+15  0.6106442236E+01  0.3581685652E-16 -0.3299354650E+01
  0.1153011065E+01  0.1000000000E+01  0.4000000000E+00  0.5737912981E+01  0.2829575906E-16 -0.3431825371E+01  0.6268520929E+15  0.5723357469E+01  0.2807616153E-16 -0.3444777933E+01
  0.1057046303E+01  0.1000000000E+01  0.4000000000E+00  0.4808881107E+01  0.4362355166E-17 -0.2978853708E+01  0.6268520929E+15  0.4795203945E+01  0.4187602291E-17 -0.2993324896E+01
  0.9429536967E+00  0.1000000000E+01  0.4000000000E+00  0.3886597983E+01 -0.1163914305E-16 -0.2763068937E+01  0.6268520929E+15  0.3887753070E+01 -0.1185323274E-16 -0.2782835792E+01
  0.8469889352E+00  0.1000000000E+01  0.4000000000E+00  0.3223007278E+01 -0.6481906059E-17 -0.2066254555E+01  0.6268520929E+15  0.3233558872E+01 -0.6311649513E-17 -0.2096606145E+01
  0.8000000000E+00  0.1000000000E+01  0.4000000000E+00  0.2904715382E+01 -0.1748099246E-17 -0.1912118156E+01  0.6268520929E+15  0.2908137388E+01 -0.1752160939E-17 -0.1947142119E+01
ZONE I=6, J=6, K=1, F=POINT
  0.1600000000E+01  0.1000000000E+01  0.0000000000E+00  0.1325075501E+00 -0.9347079385E-18 -0.7174411300E-01  0.6268520929E+15  0.1297522755E+00 -0.1048209807E-17 -0.7103581544E-01
  0.1553011065E+01  0.1000000000E+01  0.0000000000E+00  0.1285676533E-01 -0.1437854531E-17  0.4514877335E-01  0.6268520929E+15  0.1064406022E-01 -0.1354589603E-17  0.4522690168E-01
  0.1457046303E+01  0.1000000000E+01  0.0000000000E+00 -0.5279227559E-02 -0.1431831830E-18 -0.3309721249E-02  0.6268520929E+15 -0.7437376716E-02 -0.1112767321E-18 -0.3274314229E-02
  0.1342953697E+01  0.1000000000E+01  0.0000000000E+00  0.6579825918E-02  0.4760210253E-18  0.2969495792E-01  0.6268520929E+15  0.4643303110E-02  0.3707245854E-18  0.2963726019E-01
  0.1246988935E+01  0.1000000000E+01  0.0000000000E+00 -0.6678005649E-02  0.1309725073E-18 -0.8256333146E-02  0.6268520929E+15 -0.8382505388E-02  0.1278249699E-18 -0.8249633032E-02
  0.1200000000E+01  0.1000000000E+01  0.0000000000E+00  0.5816967012E-01  0.6245708797E-19  0.3673686728E-01  0.6268520929E+15  0.5664527783E-01  0.6339777925E-19  0.3654590270E-01
  0.1600000000E+01  0.1000000000E+01  0.4698893521E-01  0.3001832822E+01 -0.8756639805E-16  0.2394662242E+00  0.6268520929E+15  0.2996867734E+01 -0.8746207751E-16  0.2162478792E+00
  0.1553011065E+01  0.1000000000E+01  0.4698893521E-01  0.3521982204E+01 -0.4327440616E-16 -0.2639268727E+00  0.6268520929E+15  0.3520699741E+01 -0.4328979096E-16 -0.2856244277E+00
  0.1457046303E+01  0.1000000000E+01  0.4698893521E-01  0.2589597528E+01 -0.4453829320E-17 -0.7710313166E-01  0.6268520929E+15  0.2587899075E+01 -0.4424922115E-17 -0.9476134601E-01
  0.1342953697E+01  0.1000000000E+01  0.4698893521E-01  0.2615844177E+01  0.2852968475E-16 -0.5365736556E-01  0.6268520929E+15  0.2613683194E+01  0.2850041463E-16 -0.6839429689E-01
  0.1246988935E+01  0.1000000000E+01  0.4698893521E-01  0.2040429083E+01 -0.6989978788E-17 -0.2525857233E-01  0.6268520929E+15  0.2038333939E+01 -0.7058528990E-17 -0.4010428953E-01
  0.1200000000E+01  0.1000000000E+01  0.4698893521E-01  0.2404923712E+01 -0.4632867558E-16 -0.2056893035E+00  0.6268520929E+15  0.2399394864E+01 -0.4611583757E-16 -0.2190068399E+00
  0.1600000000E+01  0.1000000000E+01  0.1429536967E+00  0.6451055397E+01 -0.2662984559E-15 -0.1705941744E+01  0.6268520929E+15  0.6425501381E+01 -0.2668106073E-15 -0.1740766632E+01
  0.1553011065E+01  0.1000000000E+01  0.1429536967E+00  0.8182955434E+01 -0.1420935875E-15 -0.8731699066E+00  0.6268520929E+15  0.8174640467E+01 -0.1417824603E-15 -0.9041496558E+00
  0.1457046303E+01  0.1000000000E+01  0.1429536967E+00  0.6202683127E+01  0.3069908179E-16 -0.8714006426E+00  0.6268520929E+15  0.6195605994E+01  0.3005850436E-16 -0.8944108057E+00
  0.1342953697E+01  0.1000000000E+01  0.1429536967E+00  0.6212997877E+01  0.9977993220E-16 -0.1839805138E+00  0.6268520929E+15  0.6208216499E+01  0.9961207687E-16 -0.2007534997E+00
  0.1246988935E+01  0.1000000000E+01  0.1429536967E+00  0.4850216327E+01  0.2605467522E-16 -0.7532643171E+00  0.6268520929E+15  0.4846743731E+01  0.2653810000E-16 -0.7656899535E+00
  0.1200000000E+01  0.1000000000E+01  0.1429536967E+00  0.5563297522E+01 -0.6213102963E-16 -0.6217831071E+00  0.6268520929E+15  0.5549431799E+01 -0.6182331252E-16 -0.6340051163E+00
  0.1600000000E+01  0.1000000000E+01  0.2570463033E+00  0.1153260902E+02  0.1044255208E-15 -0.3428028637E+01  0.6268520929E+15  0.1152448054E+02  0.1043088466E-15 -0.3458408489E+01
  0.1553011065E+01  0.1000000000E+01  0.2570463033E+00  0.1049645777E+02  0.1267307373E-15 -0.2350329624E+01  0.6268520929E+15  0.1048165424E+02  0.1262578793E-15 -0.2372737643E+01
  0.1457046303E+01  0.1000000000E+01  0.2570463033E+00  0.9203093094E+01  0.1826871005E-15 -0.2264623872E+01  0.6268520929E+15  0.9190293547E+01  0.1818617303E-15 -0.2282810175E+01
  0.1342953697E+01  0.1000000000E+01  0.2570463033E+00  0.7611761207E+01  0.1299870163E-15 -0.1195927554E+01  0.6268520929E+15  0.7605238966E+01  0.1296099845E-15 -0.1213717650E+01
  0.1246988935E+01  0.1000000000E+01  0.2570463033E+00  0.6358095517E+01  0.4197859966E-16 -0.1982186562E+01  0.6268520929E+15  0.6351223960E+01  0.4141771438E-16 -0.1998460985E+01
  0.1200000000E+01  0.1000000000E+01  0.2570463033E+00  0.5918938143E+01 -0.6327305983E-17 -0.1753018645E+01  0.6268520929E+15  0.5910171997E+01 -0.6247652092E-17 -0.1771879192E+01
  0.1600000000E+01  0.1000000000E+01  0.3530110648E+00  0.1014231654E+02  0.2087006590E-15 -0.3825021139E+01  0.6268520929E+15  0.1012092069E+02  0.2086766000E-15 -0.3843800559E+01
  0.1553011065E+01  0.1000000000E+01  0.3530110648E+00  0.1036427316E+02  0.2104220085E-15 -0.3767446661E+01  0.6268520929E+15  0.1034553359E+02  0.2102625062E-15 -0.3786791740E+01
  0.1457046303E+01  0.1000000000E+01  0.3530110648E+00  0.9213669147E+01  0.1940798758E-15 -0.3420706017E+01  0.6268520929E+15  0.9201803455E+01  0.1935890361E-15 -0.3442008057E+01
  0.1342953697E+01  0.1000000000E+01  0.3530110648E+00  0.7956764214E+01  0.1449812123E-15 -0.2728237943E+01  0.6268520929E+15  0.7952538503E+01  0.1450522989E-15 -0.2751360265E+01
  0.1246988935E+01  0.1000000000E+01  0.3530110648E+00  0.6532538819E+01  0.6163235700E-16 -0.2979625680E+01  0.6268520929E+15  0.6526824044E+01  0.6213241915E-16 -0.3004755173E+01
  0.1200000000E+01  0.1000000000E+01  0.3530110648E+00  0.6409502056E+01  0.3164031162E-16 -0.2944570788E+01  0.6268520929E+15  0.6396200709E+01  0.3163458017E-16 -0.2969548248E+01
  0.1600000000E+01  0.1000000000E+01  0.4000000000E+00  0.1037264617E+02  0.2102085055E-15 -0.4482742297E+01  0.6268520929E+15  0.1035624460E+02  0.2101116549E-15 -0.4503058415E+01
  0.1553011065E+01  0.1000000000E+01  0.4000000000E+00  0.9740893894E+01  0.2216077203E-15 -0.3750390293E+01  0.6268520929E+15  0.9726082832E+01  0.2220581113E-15 -0.3771545878E+01
  0.1457046303E+01  0.1000000000E+01  0.4000000000E+00  0.9167563693E+01  0.1875001341E-15 -0.3946712188E+01  0.6268520929E+15  0.9154940702E+01  0.1875626930E-15 -0.3968133958E+01
  0.1342953697E+01  0.1000000000E+01  0.4000000000E+00  0.7764433101E+01  0.1508000960E-15 -0.3149954653E+01  0.6268520929E+15  0.7761188451E+01  0.1503589850E-15 -0.3167710883E+01
  0.1246988935E+01  0.1000000000E+01  0.4000000000E+00  0.6707247530E+01  0.6046405918E-16 -0.3576593304E+01  0.6268520929E+15  0.6700574467E+01  0.6061503382E-16 -0.3588754431E+01
  0.1200000000E+01  0.1000000000E+01  0.4000000000E+00  0.6091296841E+01  0.3606801575E-16 -0.3275040160E+01  0.6268520929E+15  0.6081065846E+01  0.3605451870E-16 -0.3289839762E+01
ZONE I=6, J=6, K=1, F=POINT
  0.2000000000E+01  0.1000000000E+01  0.0000000000E+00  0.2402403423E+01  0.7432320004E-19  0.2123414056E+02  0.6268520929E+15  0.2429966465E+01  0.9447112339E-19  0.2215507197E+02
  0.1953011065E+01  0.1000000000E+01  0.0000000000E+00  0.1295454313E+01 -0.3740284847E-16 -0.1370796192E+00  0.6268520929E+15  0.1296157701E+01 -0.3607210081E-16 -0.1505284302E+00
  0.1857046303E+01  0.1000000000E+01  0.0000000000E+00 -0.3025721770E+00 -0.1856735568E-16  0.1518501068E+00  0.6268520929E+15 -0.3072560266E+00 -0.1929644742E-16  0.1504307046E+00
  0.1742953697E+01  0.1000000000E+01  0.0000000000E+00  0.1374052676E+00  0.2229584880E-18 -0.3720103787E-01  0.6268520929E+15  0.1344354978E+00  0.9756294349E-19 -0.3694763890E-01
  0.1646988935E+01  0.1000000000E+01  0.0000000000E+00 -0.1239556560E+00  0.3012448880E-18  0.6040476190E-01  0.6268520929E+15 -0.1274742528E+00  0.2851150397E-18  0.5972989517E-01
  0.1600000000E+01  0.1000000000E+01  0.0000000000E+00  0.9097901777E-01 -0.1015092455E-17 -0.8379877849E-01  0.6268520929E+15  0.8765858461E-01 -0.1129759300E-17 -0.8172873616E-01
  0.2000000000E+01  0.1000000000E+01  0.4698893521E-01 -0.1229879066E-01  0.7511717444E-18  0.4848653765E+02  0.6268520929E+15 -0.5540929040E-01  0.6901008978E-18  0.4865794006E+02
  0.1953011065E+01  0.1000000000E+01  0.4698893521E-01  0.1096192294E+02  0.1354556611E-15  0.1468619660E+01  0.6268520929E+15  0.1094882362E+02  0.1342514418E-15  0.1483259680E+01
  0.1857046303E+01  0.1000000000E+01  0.4698893521E-01  0.1160840291E+02  0.2869180463E-15 -0.1889072214E+01  0.6268520929E+15  0.1161003404E+02  0.2871589200E-15 -0.1895259010E+01
  0.1742953697E+01  0.1000000000E+01  0.4698893521E-01  0.5709887096E+01 -0.4272115430E-16 -0.6310363377E+00  0.6268520929E+15  0.5712294502E+01 -0.4238027336E-16 -0.6532830300E+00
  0.1646988935E+01  0.1000000000E+01  0.4698893521E-01  0.4452600239E+01 -0.1221074645E-15 -0.6156878767E+00  0.6268520929E+15  0.4447058802E+01 -0.1219900104E-15 -0.6388273837E+00
  0.1600000000E+01  0.1000000000E+01  0.4698893521E-01  0.2837029529E+01 -0.8470516554E-16  0.2252939027E+00  0.6268520929E+15  0.2841164153E+01 -0.8441511793E-16  0.1968038328E+00
  0.2000000000E+01  0.1000000000E+01  0.1429536967E+00 -0.2820246973E+00  0.2725275461E-17  0.5050767257E+02  0.6268520929E+15 -0.2578151745E+00  0.2737876221E-17  0.5043971581E+02
  0.1953011065E+01  0.1000000000E+01  0.1429536967E+00  0.2782538825E+01 -0.5106388465E-15  0.1636019710E+02  0.6268520929E+15  0.2769590316E+01 -0.5104422078E-15  0.1639239228E+02
  0.1857046303E+01  0.1000000000E+01  0.1429536967E+00  0.1266123872E+02 -0.2632812116E-15 -0.3647608992E+01  0.6268520929E+15  0.1267309066E+02 -0.2642167709E-15 -0.3654228042E+01
  0.1742953697E+01  0.1000000000E+01  0.1429536967E+00  0.9956014439E+01 -0.3266240281E-16 -0.4013872669E+01  0.6268520929E+15  0.9968849074E+01 -0.3193618634E-16 -0.4050181605E+01
  0.1646988935E+01  0.1000000000E+01  0.1429536967E+00  0.9395845747E+01 -0.1613749477E-15 -0.1967805524E+01  0.6268520929E+15  0.9388219103E+01 -0.1609805852E-15 -0.2004468298E+01
  0.1600000000E+01  0.1000000000E+01  0.1429536967E+00  0.6077574204E+01 -0.2829685211E-15 -0.1706306624E+01  0.6268520929E+15  0.6092904410E+01 -0.2838024286E-15 -0.1745462663E+01
  0.2000000000E+01  0.1000000000E+01  0.2570463033E+00  0.1906954872E-01  0.1133876510E-17  0.4987686491E+02  0.6268520929E+15  0.1795197643E-01  0.1091406979E-17  0.4987673292E+02