TITLE = "Generated from ../MESH/Convergence_0000000000.hmesh and Convergence_0000002100.hsol"
VARIABLES = "x","y","z","veloT_x","veloT_y","veloT_z","slr_4","velo_x","velo_y","velo_z"
ZONE I=6, J=6, K=1, F=POINT
  0.4000000000E+00  0.1000000000E+01  0.0000000000E+00 -0.1100211808E-01  0.2862101775E-19  0.6895300574E-02  0.5992534982E+15 -0.1066139805E-01  0.2941767308E-19  0.7429697437E-02
  0.3530110648E+00  0.1000000000E+01  0.0000000000E+00 -0.4117100252E-03  0.1030055922E-19 -0.5302960081E-03  0.5992534982E+15 -0.3706081225E-04  0.8665888416E-20 -0.4159771416E-03
  0.2570463033E+00  0.1000000000E+01  0.0000000000E+00  0.7485517359E-03  0.1618113991E-20  0.2250857715E-02  0.5992534982E+15  0.1181447203E-02  0.1268857094E-20  0.2211580407E-02
  0.1429536967E+00  0.1000000000E+01  0.0000000000E+00  0.4891992065E-04  0.3447894739E-21 -0.1175923123E-02  0.5992534982E+15  0.4277040885E-03  0.2558677880E-21 -0.1173073650E-02
  0.4698893521E-01  0.1000000000E+01  0.0000000000E+00  0.2635100688E-02 -0.2065859661E-20  0.1846708658E-02  0.5992534982E+15  0.2897931258E-02 -0.1964351923E-20  0.1742419297E-02
  0.0000000000E+00  0.1000000000E+01  0.0000000000E+00 -0.7448535801E-02  0.1410871398E-22  0.1973596717E-02  0.5992534982E+15 -0.7374027083E-02  0.9767922048E-23  0.1904343248E-02
  0.4000000000E+00  0.1000000000E+01  0.4698893521E-01  0.2613495524E+00  0.2663305719E-17 -0.3446665324E-01  0.5992534982E+15  0.2646992478E+00  0.2644376432E-17 -0.3066237176E-01
  0.3530110648E+00  0.1000000000E+01  0.4698893521E-01  0.1249427593E+00  0.2317128377E-17  0.1678016696E-02  0.5992534982E+15  0.1272868981E+00  0.2288867715E-17  0.4642679307E-02
  0.2570463033E+00  0.1000000000E+01  0.4698893521E-01  0.1008624978E+00  0.7771353185E-18 -0.1190676479E-01  0.5992534982E+15  0.1032489518E+00  0.7776582874E-18 -0.9507491191E-02
  0.1429536967E+00  0.1000000000E+01  0.4698893521E-01  0.8035159154E-02  0.1155864368E-18 -0.8944940150E-02  0.5992534982E+15  0.1133830635E-01  0.1242946697E-18 -0.9567729852E-02
  0.4698893521E-01  0.1000000000E+01  0.4698893521E-01 -0.4323363372E-03  0.6330489199E-20 -0.9293255290E-02  0.5992534982E+15  0.1752767552E-02  0.9486050327E-20 -0.1151296436E-01
  0.0000000000E+00  0.1000000000E+01  0.4698893521E-01 -0.1801137452E-01  0.8958497091E-21  0.1569108820E-02  0.5992534982E+15 -0.1790424420E-01  0.8664796353E-21  0.1302028097E-02
  0.4000000000E+00  0.1000000000E+01  0.1429536967E+00  0.5536726426E+00  0.8688362628E-17 -0.1083965253E+00  0.5992534982E+15  0.5621573424E+00  0.8802131398E-17 -0.8581626779E-01
  0.3530110648E+00  0.1000000000E+01  0.1429536967E+00  0.3068958148E+00  0.4944176783E-17 -0.1451944906E+00  0.5992534982E+15  0.3131735347E+00  0.4815393050E-17 -0.1262364154E+00
  0.2570463033E+00  0.1000000000E+01  0.1429536967E+00  0.2249334011E+00  0.1521960204E-17 -0.8764316366E-01  0.5992534982E+15  0.2322510527E+00  0.1530539767E-17 -0.7751162187E-01
  0.1429536967E+00  0.1000000000E+01  0.1429536967E+00  0.4008097954E-01  0.3489912064E-18 -0.1080995981E+00  0.5992534982E+15  0.4764078994E-01  0.3504353875E-18 -0.1064110973E+00
  0.4698893521E-01  0.1000000000E+01  0.1429536967E+00 -0.2874860463E-02  0.3457497627E-19 -0.1209392659E-01  0.5992534982E+15  0.2388549937E-03  0.4215069124E-19 -0.1378868931E-01
  0.0000000000E+00  0.1000000000E+01  0.1429536967E+00 -0.2129778961E-01  0.1723717057E-21 -0.2102625921E-02  0.5992534982E+15 -0.2129059767E-01 -0.2182918558E-21 -0.2291330046E-02
  0.4000000000E+00  0.1000000000E+01  0.2570463033E+00  0.5769825346E+00  0.1485573163E-17 -0.3349761763E+00  0.5992534982E+15  0.5964240934E+00  0.1506858376E-17 -0.2984055893E+00
  0.3530110648E+00  0.1000000000E+01  0.2570463033E+00  0.4226955220E+00  0.5158168918E-18 -0.3795682276E+00  0.5992534982E+15  0.4444816627E+00  0.9376936554E-18 -0.3502710295E+00
  0.2570463033E+00  0.1000000000E+01  0.2570463033E+00  0.2740917972E+00  0.3851263450E-18 -0.2597146917E+00  0.5992534982E+15  0.2956718875E+00  0.3834321323E-18 -0.2463030127E+00
  0.1429536967E+00  0.1000000000E+01  0.2570463033E+00  0.8933212784E-01  0.5247083961E-18 -0.2652161946E+00  0.5992534982E+15  0.1035213263E+00  0.5238145301E-18 -0.2636961972E+00
  0.4698893521E-01  0.1000000000E+01  0.2570463033E+00  0.1503638868E-01  0.6402157822E-18 -0.5149786109E-01  0.5992534982E+15  0.1982702922E-01  0.6240012699E-18 -0.5277373518E-01
  0.0000000000E+00  0.1000000000E+01  0.2570463033E+00 -0.1409075893E-01 -0.4086763445E-20 -0.1709087314E-02  0.5992534982E+15 -0.1405961643E-01 -0.3149739113E-20 -0.1836399450E-02
  0.4000000000E+00  0.1000000000E+01  0.3530110648E+00  0.5669116968E+00  0.1101696706E-17 -0.5291489737E+00  0.5992534982E+15  0.6006609860E+00  0.1078285691E-17 -0.4980413707E+00
  0.3530110648E+00  0.1000000000E+01  0.3530110648E+00  0.4099986953E+00  0.8073654559E-18 -0.5508407556E+00  0.5992534982E+15  0.4471546434E+00  0.8104447912E-18 -0.5263084035E+00
  0.2570463033E+00  0.1000000000E+01  0.3530110648E+00  0.2700968940E+00 -0.1389805602E-18 -0.4287868283E+00  0.5992534982E+15  0.3051601835E+00 -0.3144735741E-18 -0.4165688222E+00
  0.1429536967E+00  0.1000000000E+01  0.3530110648E+00  0.9161010380E-01  0.7399941501E-18 -0.3892436029E+00  0.5992534982E+15  0.1116569259E+00  0.7338927033E-18 -0.3882997413E+00
  0.4698893521E-01  0.1000000000E+01  0.3530110648E+00  0.1806625964E-01  0.1910337704E-18 -0.1101211034E+00  0.5992534982E+15  0.2271437183E-01  0.2064531632E-18 -0.1118181374E+00
  0.0000000000E+00  0.1000000000E+01  0.3530110648E+00 -0.1428890791E-01  0.4668321625E-20 -0.1942280293E-02  0.5992534982E+15 -0.1429310401E-01  0.5085852186E-20 -0.2044859558E-02
  0.4000000000E+00  0.1000000000E+01  0.4000000000E+00  0.5344695848E+00  0.2893123408E-17 -0.6160008643E+00  0.5992534982E+15  0.5738610402E+00  0.2898357721E-17 -0.5902306799E+00
  0.3530110648E+00  0.1000000000E+01  0.4000000000E+00  0.4285430396E+00  0.2288987965E-17 -0.6362668182E+00  0.5992534982E+15  0.4707613429E+00  0.2219726907E-17 -0.6134245988E+00
  0.2570463033E+00  0.1000000000E+01  0.4000000000E+00  0.2669556413E+00 -0.2645731751E-18 -0.5096145966E+00  0.5992534982E+15  0.3070392265E+00 -0.1863981653E-18 -0.4954174422E+00
  0.1429536967E+00  0.1000000000E+01  0.4000000000E+00  0.9999323610E-01  0.7451378554E-18 -0.4501286208E+00  0.5992534982E+15  0.1232107186E+00  0.7782308216E-18 -0.4462954262E+00
  0.4698893521E-01  0.1000000000E+01  0.4000000000E+00  0.1458504729E-01  0.1111318067E-18 -0.1364176739E+00  0.5992534982E+15  0.1952363283E-01  0.1129334283E-18 -0.1367590558E+00
  0.0000000000E+00  0.1000000000E+01  0.4000000000E+00 -0.7160435987E-02  0.8017877411E-20 -0.3256771624E-02  0.5992534982E+15 -0.6999999854E-02  0.7695012910E-20 -0.3234472155E-02
ZONE I=6, J=6, K=1, F=POINT
  0.8000000000E+00  0.1000000000E+01  0.0000000000E+00  0.1774358154E-01 -0.7821941994E-19 -0.1151399672E-01  0.5992534982E+15  0.1879620190E-01 -0.8054837654E-19 -0.1113907105E-01
  0.7530110648E+00  0.1000000000E+01  0.0000000000E+00  0.2252781496E-02  0.9492492714E-19  0.5873061088E-02  0.5992534982E+15  0.2910930280E-02  0.1067520074E-18  0.5932402765E-02
  0.6570463033E+00  0.1000000000E+01  0.0000000000E+00 -0.1115790050E-03  0.2491592676E-19  0.1166178042E-03  0.5992534982E+15  0.3815361416E-03  0.3042923350E-19  0.1351532909E-03
  0.5429536967E+00  0.1000000000E+01  0.0000000000E+00  0.1443635097E-02  0.4205022584E-19  0.6752414333E-02  0.5992534982E+15  0.1862303704E-02  0.5125728467E-19  0.6677906333E-02
  0.4469889352E+00  0.1000000000E+01  0.0000000000E+00 -0.1087510357E-02 -0.8854240206E-20  0.3655377056E-03  0.5992534982E+15 -0.6617504690E-03  0.1262403913E-20  0.3992995418E-03
  0.4000000000E+00  0.1000000000E+01  0.0000000000E+00  0.1541545007E-01  0.3222287846E-19  0.6599626722E-02  0.5992534982E+15  0.1604426427E-01  0.3303420642E-19  0.7116483702E-02
  0.8000000000E+00  0.1000000000E+01  0.4698893521E-01  0.3107004494E+00 -0.2565060266E-16  0.2026456124E-01  0.5992534982E+15  0.3130951611E+00 -0.2567441909E-16  0.2908483131E-01
  0.7530110648E+00  0.1000000000E+01  0.4698893521E-01  0.5089628891E+00 -0.2513693381E-16 -0.3971238822E-01  0.5992534982E+15  0.5110881153E+00 -0.2527051695E-16 -0.2959485270E-01
  0.6570463033E+00  0.1000000000E+01  0.4698893521E-01  0.2964007042E+00 -0.5444687098E-17 -0.1076739927E-01  0.5992534982E+15  0.2983321116E+00 -0.5405705492E-17  0.6829300137E-03
  0.5429536967E+00  0.1000000000E+01  0.4698893521E-01  0.3265959644E+00  0.4194779151E-17 -0.2408026067E-02  0.5992534982E+15  0.3297882469E+00  0.4255798305E-17  0.8371792744E-02
  0.4469889352E+00  0.1000000000E+01  0.4698893521E-01  0.1977627310E+00  0.3666537891E-17  0.7662291623E-02  0.5992534982E+15  0.2016623354E+00  0.3636944712E-17  0.1396313393E-01
  0.4000000000E+00  0.1000000000E+01  0.4698893521E-01  0.3032304368E+00  0.2423204319E-17 -0.3522881646E-01  0.5992534982E+15  0.3064569414E+00  0.2404718675E-17 -0.3141517094E-01
  0.8000000000E+00  0.1000000000E+01  0.1429536967E+00  0.8853139926E+00 -0.5645815054E-16 -0.3038603583E+00  0.5992534982E+15  0.8824326349E+00 -0.5652702291E-16 -0.2839077420E+00
  0.7530110648E+00  0.1000000000E+01  0.1429536967E+00  0.1204783347E+01 -0.3691440158E-16 -0.1696480985E+00  0.5992534982E+15  0.1202642161E+01 -0.3705366685E-16 -0.1465560155E+00
  0.6570463033E+00  0.1000000000E+01  0.1429536967E+00  0.8030620539E+00 -0.6644677096E-17 -0.1819843287E+00  0.5992534982E+15  0.8033625838E+00 -0.6636827879E-17 -0.1538348350E+00
  0.5429536967E+00  0.1000000000E+01  0.1429536967E+00  0.7596152751E+00  0.8656650467E-17 -0.5031047262E-01  0.5992534982E+15  0.7655060468E+00  0.8841456276E-17 -0.2181300161E-01
  0.4469889352E+00  0.1000000000E+01  0.1429536967E+00  0.4748722844E+00  0.8623788326E-17 -0.1318964771E+00  0.5992534982E+15  0.4845435133E+00  0.8434603264E-17 -0.1065732430E+00
  0.4000000000E+00  0.1000000000E+01  0.1429536967E+00  0.6046401496E+00  0.9395449493E-17 -0.1078561716E+00  0.5992534982E+15  0.6134719921E+00  0.9517319501E-17 -0.8527422474E-01
  0.8000000000E+00  0.1000000000E+01  0.2570463033E+00  0.1591658536E+01 -0.1656400293E-16 -0.7515255885E+00  0.5992534982E+15  0.1581128465E+01 -0.1658530373E-16 -0.7272399018E+00
  0.7530110648E+00  0.1000000000E+01  0.2570463033E+00  0.1528397242E+01 -0.1263533699E-16 -0.5195612136E+00  0.5992534982E+15  0.1516494841E+01 -0.1217238676E-16 -0.4908313441E+00
  0.6570463033E+00  0.1000000000E+01  0.2570463033E+00  0.1161118021E+01 -0.7476454605E-17 -0.4949848459E+00  0.5992534982E+15  0.1155216581E+01 -0.7317924703E-17 -0.4570853468E+00
  0.5429536967E+00  0.1000000000E+01  0.2570463033E+00  0.9058859028E+00  0.3905438097E-18 -0.2682541333E+00  0.5992534982E+15  0.9121685471E+00  0.4784990703E-18 -0.2243942715E+00
  0.4469889352E+00  0.1000000000E+01  0.2570463033E+00  0.6309999085E+00  0.1270329601E-17 -0.3801703774E+00  0.5992534982E+15  0.6464128282E+00  0.1790058804E-17 -0.3389538533E+00
  0.4000000000E+00  0.1000000000E+01  0.2570463033E+00  0.6076201509E+00  0.1514945228E-17 -0.3343561032E+00  0.5992534982E+15  0.6273298457E+00  0.1537013804E-17 -0.2978166922E+00
  0.8000000000E+00  0.1000000000E+01  0.3530110648E+00  0.1561484094E+01 -0.3787006442E-17 -0.1094924513E+01  0.5992534982E+15  0.1542926423E+01 -0.3776101294E-17 -0.1070860165E+01
  0.7530110648E+00  0.1000000000E+01  0.3530110648E+00  0.1546387693E+01  0.2274850697E-17 -0.8992627397E+00  0.5992534982E+15  0.1526755099E+01  0.1161605800E-17 -0.8724332896E+00
  0.6570463033E+00  0.1000000000E+01  0.3530110648E+00  0.1190215999E+01 -0.5613712682E-17 -0.7638315858E+00  0.5992534982E+15  0.1175206430E+01 -0.5565308551E-17 -0.7303491464E+00
  0.5429536967E+00  0.1000000000E+01  0.3530110648E+00  0.9178703904E+00 -0.5887707592E-17 -0.5063079133E+00  0.5992534982E+15  0.9221230242E+00 -0.6490366561E-17 -0.4636844031E+00
  0.4469889352E+00  0.1000000000E+01  0.3530110648E+00  0.5981368859E+00  0.5921037497E-18 -0.5639242830E+00  0.5992534982E+15  0.6238262652E+00  0.3257547450E-18 -0.5263592302E+00
  0.4000000000E+00  0.1000000000E+01  0.3530110648E+00  0.5994441815E+00  0.1076515376E-17 -0.5289808769E+00  0.5992534982E+15  0.6330142767E+00  0.1050029274E-17 -0.4978619789E+00
  0.8000000000E+00  0.1000000000E+01  0.4000000000E+00  0.1556446294E+01 -0.1169461188E-16 -0.1291048231E+01  0.5992534982E+15  0.1535155699E+01 -0.1168866665E-16 -0.1267293845E+01
  0.7530110648E+00  0.1000000000E+01  0.4000000000E+00  0.1420852321E+01 -0.7173167840E-17 -0.1036221375E+01  0.5992534982E+15  0.1400775052E+01 -0.7370716538E-17 -0.1012847182E+01
  0.6570463033E+00  0.1000000000E+01  0.4000000000E+00  0.1138591636E+01 -0.4064181908E-17 -0.8914746471E+00  0.5992534982E+15  0.1119953723E+01 -0.3981387458E-17 -0.8671424896E+00
  0.5429536967E+00  0.1000000000E+01  0.4000000000E+00  0.8660448410E+00  0.3234657440E-17 -0.6445055887E+00  0.5992534982E+15  0.8689729007E+00  0.3505520564E-17 -0.6129242052E+00
  0.4469889352E+00  0.1000000000E+01  0.4000000000E+00  0.6270133382E+00  0.3296230069E-17 -0.6650300757E+00  0.5992534982E+15  0.6577620225E+00  0.3884235760E-17 -0.6365412415E+00
  0.4000000000E+00  0.1000000000E+01  0.4000000000E+00  0.5468698698E+00  0.2916265127E-17 -0.6153073613E+00  0.5992534982E+15  0.5850119176E+00  0.2917590449E-17 -0.5895403062E+00
ZONE I=6, J=6, K=1, F=POINT
  0.1200000000E+01  0.1000000000E+01  0.0000000000E+00 -0.3203304764E-01  0.5996807691E-19  0.3622639420E-01  0.5992534982E+15 -0.3025032777E-01  0.6291116509E-19  0.3662204962E-01
  0.1153011065E+01  0.1000000000E+01  0.0000000000E+00 -0.5292178506E-02 -0.2178995734E-18 -0.9858484925E-02  0.5992534982E+15 -0.3055748375E-02 -0.1207130403E-18 -0.9672937303E-02
  0.1057046303E+01  0.1000000000E+01  0.0000000000E+00  0.1999697199E-02  0.2023302206E-19  0.5923261060E-02  0.5992534982E+15  0.4044867399E-02  0.7276307598E-19  0.5877339090E-02
  0.9429536967E+00  0.1000000000E+01  0.0000000000E+00 -0.2309538110E-02  0.1114723138E-19 -0.8264475772E-02  0.5992534982E+15 -0.4766114026E-03  0.9923803941E-20 -0.8213083932E-02
  0.8469889352E+00  0.1000000000E+01  0.0000000000E+00  0.3445876927E-02 -0.1559146747E-19  0.5344880068E-02  0.5992534982E+15  0.5071563793E-02 -0.1681933284E-19  0.5307858229E-02
  0.8000000000E+00  0.1000000000E+01  0.0000000000E+00 -0.2717262207E-01 -0.8781526158E-19 -0.1097076088E-01  0.5992534982E+15 -0.2615584193E-01 -0.9021933161E-19 -0.1060678313E-01
  0.1200000000E+01  0.1000000000E+01  0.4698893521E-01  0.2008529484E+01 -0.4124821880E-16 -0.1858322551E+00  0.5992534982E+15  0.2013261694E+01 -0.4143655711E-16 -0.1975824431E+00
  0.1153011065E+01  0.1000000000E+01  0.4698893521E-01  0.1350301673E+01 -0.2623059794E-16 -0.3985639558E-01  0.5992534982E+15  0.1355124557E+01 -0.2637133112E-16 -0.4893519994E-01
  0.1057046303E+01  0.1000000000E+01  0.4698893521E-01  0.1258038684E+01 -0.1269696818E-16 -0.7703680658E-01  0.5992534982E+15  0.1262207759E+01 -0.1265322389E-16 -0.8061501367E-01
  0.9429536967E+00  0.1000000000E+01  0.4698893521E-01  0.7018675835E+00 -0.1623282687E-16 -0.6459399028E-01  0.5992534982E+15  0.7057510944E+00 -0.1633627887E-16 -0.6247691334E-01
  0.8469889352E+00  0.1000000000E+01  0.4698893521E-01  0.6279112582E+00 -0.2979499052E-16 -0.6518020105E-01  0.5992534982E+15  0.6313992738E+00 -0.2995657488E-16 -0.5799112178E-01
  0.8000000000E+00  0.1000000000E+01  0.4698893521E-01  0.2497284374E+00 -0.2495411204E-16  0.2231231055E-01  0.5992534982E+15  0.2524266047E+00 -0.2498750195E-16  0.3108056176E-01
  0.1200000000E+01  0.1000000000E+01  0.1429536967E+00  0.4442209778E+01 -0.5804263677E-16 -0.5170098189E+00  0.5992534982E+15  0.4445371396E+01 -0.5802483233E-16 -0.5291074475E+00
  0.1153011065E+01  0.1000000000E+01  0.1429536967E+00  0.3055180479E+01 -0.6884880051E-16 -0.7205932616E+00  0.5992534982E+15  0.3054084352E+01 -0.6889770685E-16 -0.7300977133E+00
  0.1057046303E+01  0.1000000000E+01  0.1429536967E+00  0.2791131578E+01 -0.4159564898E-16 -0.5116095508E+00  0.5992534982E+15  0.2787833760E+01 -0.4159649318E-16 -0.5134944853E+00
  0.9429536967E+00  0.1000000000E+01  0.1429536967E+00  0.1671847411E+01 -0.3738217926E-16 -0.6326727160E+00  0.5992534982E+15  0.1668566201E+01 -0.3737132894E-16 -0.6232511708E+00
  0.8469889352E+00  0.1000000000E+01  0.1429536967E+00  0.1479305606E+01 -0.5331182040E-16 -0.3141470942E+00  0.5992534982E+15  0.1477049404E+01 -0.5334291359E-16 -0.2974248860E+00
  0.8000000000E+00  0.1000000000E+01  0.1429536967E+00  0.8017059115E+00 -0.5867234254E-16 -0.3054203912E+00  0.5992534982E+15  0.8009265784E+00 -0.5873852374E-16 -0.2854525993E+00
  0.1200000000E+01  0.1000000000E+01  0.2570463033E+00  0.4094210339E+01 -0.1391485612E-16 -0.1445477679E+01  0.5992534982E+15  0.4089949146E+01 -0.1385362865E-16 -0.1444349258E+01
  0.1153011065E+01  0.1000000000E+01  0.2570463033E+00  0.3646718458E+01 -0.4958266299E-16 -0.1686432093E+01  0.5992534982E+15  0.3640768811E+01 -0.4881927366E-16 -0.1684876053E+01
  0.1057046303E+01  0.1000000000E+01  0.2570463033E+00  0.3003208445E+01 -0.4165710166E-16 -0.1294038936E+01  0.5992534982E+15  0.2990819184E+01 -0.4168366030E-16 -0.1288146497E+01
  0.9429536967E+00  0.1000000000E+01  0.2570463033E+00  0.2256177991E+01 -0.3781959897E-16 -0.1376921921E+01  0.5992534982E+15  0.2243305775E+01 -0.3711057714E-16 -0.1363170047E+01
  0.8469889352E+00  0.1000000000E+01  0.2570463033E+00  0.1878747293E+01 -0.1875664739E-16 -0.8059266255E+00  0.5992534982E+15  0.1869134774E+01 -0.1882274752E-16 -0.7853235918E+00
  0.8000000000E+00  0.1000000000E+01  0.2570463033E+00  0.1554354006E+01 -0.1672465077E-16 -0.7538529641E+00  0.5992534982E+15  0.1543524036E+01 -0.1672919533E-16 -0.7292908449E+00
  0.1200000000E+01  0.1000000000E+01  0.3530110648E+00  0.3935535965E+01  0.1565315313E-16 -0.2394582627E+01  0.5992534982E+15  0.3933026766E+01  0.1568254834E-16 -0.2380630513E+01
  0.1153011065E+01  0.1000000000E+01  0.3530110648E+00  0.3313847229E+01 -0.4596736350E-17 -0.2304677807E+01  0.5992534982E+15  0.3306488923E+01 -0.4468559578E-17 -0.2290739334E+01
  0.1057046303E+01  0.1000000000E+01  0.3530110648E+00  0.2807814591E+01 -0.2242740875E-16 -0.1930061807E+01  0.5992534982E+15  0.2793462847E+01 -0.2259129036E-16 -0.1917188876E+01
  0.9429536967E+00  0.1000000000E+01  0.3530110648E+00  0.2133312803E+01 -0.2538675331E-16 -0.1776192214E+01  0.5992534982E+15  0.2115344586E+01 -0.2488083240E-16 -0.1763151565E+01
  0.8469889352E+00  0.1000000000E+01  0.3530110648E+00  0.1886994555E+01 -0.8371114131E-17 -0.1251714810E+01  0.5992534982E+15  0.1869490500E+01 -0.9059233447E-17 -0.1231688238E+01
  0.8000000000E+00  0.1000000000E+01  0.3530110648E+00  0.1515037044E+01 -0.3726705167E-17 -0.1095121830E+01  0.5992534982E+15  0.1497602007E+01 -0.3708796849E-17 -0.1071118040E+01
  0.1200000000E+01  0.1000000000E+01  0.4000000000E+00  0.3486857900E+01  0.1646969112E-16 -0.2604328146E+01  0.5992534982E+15  0.3484749272E+01  0.1649683910E-16 -0.2578815381E+01
  0.1153011065E+01  0.1000000000E+01  0.4000000000E+00  0.3229263679E+01  0.8161956379E-17 -0.2694460363E+01  0.5992534982E+15  0.3222858190E+01  0.7924581399E-17 -0.2672026202E+01
  0.1057046303E+01  0.1000000000E+01  0.4000000000E+00  0.2595692916E+01 -0.1345334859E-16 -0.2189787444E+01  0.5992534982E+15  0.2583344900E+01 -0.1353285969E-16 -0.2173195310E+01
  0.9429536967E+00  0.1000000000E+01  0.4000000000E+00  0.2062441281E+01 -0.2582627542E-16 -0.2013759621E+01  0.5992534982E+15  0.2043064752E+01 -0.2544072396E-16 -0.2000230712E+01
  0.8469889352E+00  0.1000000000E+01  0.4000000000E+00  0.1725857986E+01 -0.1796972852E-16 -0.1411263289E+01  0.5992534982E+15  0.1703929753E+01 -0.1816699915E-16 -0.1392373033E+01
  0.8000000000E+00  0.1000000000E+01  0.4000000000E+00  0.1552192114E+01 -0.1167405440E-16 -0.1294097295E+01  0.5992534982E+15  0.1530877870E+01 -0.1166564833E-16 -0.1270088640E+01
ZONE I=6, J=6, K=1, F=POINT
  0.1600000000E+01  0.1000000000E+01  0.0000000000E+00  0.1293287627E+00 -0.8720784024E-18 -0.7234593313E-01  0.5992534982E+15  0.1297908041E+00 -0.9972031067E-18 -0.7230726962E-01
  0.1553011065E+01  0.1000000000E+01  0.0000000000E+00  0.9490327966E-02 -0.1274324512E-17  0.4534555103E-01  0.5992534982E+15  0.1029241478E-01 -0.1346167065E-17  0.4515350334E-01
  0.1457046303E+01  0.1000000000E+01  0.0000000000E+00 -0.7956447470E-02 -0.6347485016E-19 -0.3314456456E-02  0.5992534982E+15 -0.7066366197E-02 -0.1039551288E-18 -0.3253934608E-02
  0.1342953697E+01  0.1000000000E+01  0.0000000000E+00  0.4833575481E-02  0.3789853272E-18  0.2992424253E-01  0.5992534982E+15  0.5717463215E-02  0.4290477241E-18  0.2977764242E-01
  0.1246988935E+01  0.1000000000E+01  0.0000000000E+00 -0.8059298782E-02  0.1208723732E-18 -0.8337380895E-02  0.5992534982E+15 -0.7233535640E-02  0.1267585937E-18 -0.8158857302E-02
  0.1200000000E+01  0.1000000000E+01  0.0000000000E+00  0.5737234636E-01  0.6405501501E-19  0.3630927781E-01  0.5992534982E+15  0.5866401895E-01  0.6743221526E-19  0.3668408690E-01
  0.1600000000E+01  0.1000000000E+01  0.4698893521E-01  0.2893819168E+01 -0.8958493827E-16  0.2005916986E+00  0.5992534982E+15  0.2893046575E+01 -0.8955730396E-16  0.1882343871E+00
  0.1553011065E+01  0.1000000000E+01  0.4698893521E-01  0.3308550738E+01 -0.4580564078E-16 -0.2984406585E+00  0.5992534982E+15  0.3310164437E+01 -0.4573949608E-16 -0.3103583992E+00
  0.1457046303E+01  0.1000000000E+01  0.4698893521E-01  0.2280897845E+01 -0.5742504836E-17 -0.9258395618E-01  0.5992534982E+15  0.2283873606E+01 -0.5838462693E-17 -0.1037838508E+00
  0.1342953697E+01  0.1000000000E+01  0.4698893521E-01  0.2257860112E+01  0.3012237934E-16 -0.5658968553E-01  0.5992534982E+15  0.2260792266E+01  0.3013778379E-16 -0.6705907114E-01
  0.1246988935E+01  0.1000000000E+01  0.4698893521E-01  0.1721114688E+01 -0.5401368555E-17 -0.1141450375E-01  0.5992534982E+15  0.1724267447E+01 -0.5254590159E-17 -0.2291907447E-01
  0.1200000000E+01  0.1000000000E+01  0.4698893521E-01  0.2106626104E+01 -0.4546779213E-16 -0.1914755731E+00  0.5992534982E+15  0.2109020402E+01 -0.4560662366E-16 -0.2028929855E+00
  0.1600000000E+01  0.1000000000E+01  0.1429536967E+00  0.5709703598E+01 -0.2681128671E-15 -0.2028992449E+01  0.5992534982E+15  0.5695213021E+01 -0.2680937111E-15 -0.2044318369E+01
  0.1553011065E+01  0.1000000000E+01  0.1429536967E+00  0.7294679650E+01 -0.1519241479E-15 -0.1133161415E+01  0.5992534982E+15  0.7296480463E+01 -0.1519982287E-15 -0.1149547311E+01
  0.1457046303E+01  0.1000000000E+01  0.1429536967E+00  0.5125124426E+01  0.3105838552E-16 -0.9938600328E+00  0.5992534982E+15  0.5128948828E+01  0.3107451227E-16 -0.1011358354E+01
  0.1342953697E+01  0.1000000000E+01  0.1429536967E+00  0.5088601736E+01  0.1046151491E-15 -0.1715645311E+00  0.5992534982E+15  0.5091254065E+01  0.1047040073E-15 -0.1891211116E+00
  0.1246988935E+01  0.1000000000E+01  0.1429536967E+00  0.3826285886E+01  0.2835144206E-16 -0.6437207981E+00  0.5992534982E+15  0.3828788977E+01  0.2838659230E-16 -0.6581540520E+00
  0.1200000000E+01  0.1000000000E+01  0.1429536967E+00  0.4605874354E+01 -0.6218860081E-16 -0.5120038113E+00  0.5992534982E+15  0.4600488504E+01 -0.6208011014E-16 -0.5246421247E+00
  0.1600000000E+01  0.1000000000E+01  0.2570463033E+00  0.9834531916E+01  0.7139527739E-16 -0.4217090665E+01  0.5992534982E+15  0.9842197023E+01  0.7135372784E-16 -0.4222350630E+01
  0.1553011065E+01  0.1000000000E+01  0.2570463033E+00  0.8644516446E+01  0.9604408668E-16 -0.2963719856E+01  0.5992534982E+15  0.8650385150E+01  0.9595453667E-16 -0.2964053636E+01
  0.1457046303E+01  0.1000000000E+01  0.2570463033E+00  0.7168369690E+01  0.1745716172E-15 -0.2536807896E+01  0.5992534982E+15  0.7174086111E+01  0.1747509375E-15 -0.2537305292E+01
  0.1342953697E+01  0.1000000000E+01  0.2570463033E+00  0.5591270015E+01  0.1325407323E-15 -0.1109424725E+01  0.5992534982E+15  0.5594439340E+01  0.1326673428E-15 -0.1110411502E+01
  0.1246988935E+01  0.1000000000E+01  0.2570463033E+00  0.4480048587E+01  0.3914922482E-16 -0.1688792099E+01  0.5992534982E+15  0.4477860238E+01  0.3902150520E-16 -0.1688133800E+01
  0.1200000000E+01  0.1000000000E+01  0.2570463033E+00  0.4134316142E+01 -0.1423161159E-16 -0.1437135811E+01  0.5992534982E+15  0.4129396123E+01 -0.1414998002E-16 -0.1438076898E+01
  0.1600000000E+01  0.1000000000E+01  0.3530110648E+00  0.7780853754E+01  0.1385069503E-15 -0.5033704857E+01  0.5992534982E+15  0.7774983462E+01  0.1385097050E-15 -0.5025997619E+01
  0.1553011065E+01  0.1000000000E+01  0.3530110648E+00  0.7838372820E+01  0.1533338422E-15 -0.4694275403E+01  0.5992534982E+15  0.7840767439E+01  0.1533508058E-15 -0.4684594235E+01
  0.1457046303E+01  0.1000000000E+01  0.3530110648E+00  0.6519892532E+01  0.1679892225E-15 -0.3782253797E+01  0.5992534982E+15  0.6525014410E+01  0.1679808161E-15 -0.3769426613E+01
  0.1342953697E+01  0.1000000000E+01  0.3530110648E+00  0.5305852875E+01  0.1350521048E-15 -0.2539622629E+01  0.5992534982E+15  0.5308703058E+01  0.1349817500E-15 -0.2523035744E+01
  0.1246988935E+01  0.1000000000E+01  0.3530110648E+00  0.4036495882E+01  0.4958375640E-16 -0.2486949070E+01  0.5992534982E+15  0.4036955870E+01  0.4952893186E-16 -0.2470628214E+01
  0.1200000000E+01  0.1000000000E+01  0.3530110648E+00  0.4011736008E+01  0.1573369632E-16 -0.2395340280E+01  0.5992534982E+15  0.4007358818E+01  0.1574746166E-16 -0.2380966056E+01
  0.1600000000E+01  0.1000000000E+01  0.4000000000E+00  0.7774903033E+01  0.1276492656E-15 -0.5923027651E+01  0.5992534982E+15  0.7767722273E+01  0.1276192146E-15 -0.5924128881E+01
  0.1553011065E+01  0.1000000000E+01  0.4000000000E+00  0.6976026652E+01  0.1549551627E-15 -0.4830499287E+01  0.5992534982E+15  0.6977730835E+01  0.1550845762E-15 -0.4828205847E+01
  0.1457046303E+01  0.1000000000E+01  0.4000000000E+00  0.6225157937E+01  0.1486715517E-15 -0.4347508554E+01  0.5992534982E+15  0.6227194466E+01  0.1487701857E-15 -0.4338251064E+01
  0.1342953697E+01  0.1000000000E+01  0.4000000000E+00  0.4869241942E+01  0.1351275120E-15 -0.2892686912E+01  0.5992534982E+15  0.4871066987E+01  0.1352635207E-15 -0.2876943877E+01
  0.1246988935E+01  0.1000000000E+01  0.4000000000E+00  0.3971494072E+01  0.4427766149E-16 -0.2969617031E+01  0.5992534982E+15  0.3971182212E+01  0.4424774454E-16 -0.2946159021E+01
  0.1200000000E+01  0.1000000000E+01  0.4000000000E+00  0.3462409337E+01  0.1672837950E-16 -0.2593676549E+01  0.5992534982E+15  0.3461612150E+01  0.1674297593E-16 -0.2570031803E+01
ZONE I=6, J=6, K=1, F=POINT
  0.2000000000E+01  0.1000000000E+01  0.0000000000E+00  0.2402556006E+01  0.7325800011E-19  0.2123408961E+02  0.5992534982E+15  0.2430501961E+01  0.9410667161E-19  0.2215522536E+02
  0.1953011065E+01  0.1000000000E+01  0.0000000000E+00  0.1289893788E+01 -0.3735394107E-16 -0.1370323307E+00  0.5992534982E+15  0.1294449162E+01 -0.3609803060E-16 -0.1502473190E+00
  0.1857046303E+01  0.1000000000E+01  0.0000000000E+00 -0.3086289656E+00 -0.1893746913E-16  0.1520565770E+00  0.5992534982E+15 -0.3086060748E+00 -0.1938130705E-16  0.1506238386E+00
  0.1742953697E+01  0.1000000000E+01  0.0000000000E+00  0.1326087031E+00  0.2479625270E-18 -0.3806543053E-01  0.5992534982E+15  0.1341859816E+00  0.1564624069E-18 -0.3757822770E-01
  0.1646988935E+01  0.1000000000E+01  0.0000000000E+00 -0.1290559166E+00  0.3719903836E-18  0.6081349425E-01  0.5992534982E+15 -0.1276011346E+00  0.3299394985E-18  0.5984502466E-01
  0.1600000000E+01  0.1000000000E+01  0.0000000000E+00  0.8778536810E-01 -0.9496703933E-18 -0.8460606073E-01  0.5992534982E+15  0.8821787445E-01 -0.1077342797E-17 -0.8319924525E-01
  0.2000000000E+01  0.1000000000E+01  0.4698893521E-01 -0.1112772045E-01  0.7398455121E-18  0.4848135917E+02  0.5992534982E+15 -0.5362343153E-01  0.6847495301E-18  0.4865679510E+02
  0.1953011065E+01  0.1000000000E+01  0.4698893521E-01  0.1098171282E+02  0.1421407649E-15  0.1487716952E+01  0.5992534982E+15  0.1096916812E+02  0.1408964175E-15  0.1503995047E+01
  0.1857046303E+01  0.1000000000E+01  0.4698893521E-01  0.1177261341E+02  0.3068582953E-15 -0.1861791583E+01  0.5992534982E+15  0.1177537764E+02  0.3071676451E-15 -0.1864102922E+01
  0.1742953697E+01  0.1000000000E+01  0.4698893521E-01  0.5860823733E+01 -0.2114892012E-16 -0.6742899286E+00  0.5992534982E+15  0.5866291291E+01 -0.2083484239E-16 -0.6875670190E+00
  0.1646988935E+01  0.1000000000E+01  0.4698893521E-01  0.4400631321E+01 -0.1180307667E-15 -0.6615882561E+00  0.5992534982E+15  0.4400268379E+01 -0.1181936088E-15 -0.6738277260E+00
  0.1600000000E+01  0.1000000000E+01  0.4698893521E-01  0.2731985209E+01 -0.8676656752E-16  0.1861916612E+00  0.5992534982E+15  0.2740748723E+01 -0.8655603484E-16  0.1685998562E+00
  0.2000000000E+01  0.1000000000E+01  0.1429536967E+00 -0.2809011993E+00  0.2671239505E-17  0.5050158563E+02  0.5992534982E+15 -0.2563841984E+00  0.2691995361E-17  0.5043881220E+02
  0.1953011065E+01  0.1000000000E+01  0.1429536967E+00  0.2810859037E+01 -0.5135903281E-15  0.1652960951E+02  0.5992534982E+15  0.2798667854E+01 -0.5133035164E-15  0.1656502581E+02
  0.1857046303E+01  0.1000000000E+01  0.1429536967E+00  0.1277194490E+02 -0.2441088845E-15 -0.3557880887E+01  0.5992534982E+15  0.1277858290E+02 -0.2447901681E-15 -0.3557935464E+01
  0.1742953697E+01  0.1000000000E+01  0.1429536967E+00  0.9806630374E+01  0.2288768591E-16 -0.4329728998E+01  0.5992534982E+15  0.9816749962E+01  0.2321279970E-16 -0.4346607121E+01
  0.1646988935E+01  0.1000000000E+01  0.1429536967E+00  0.8835065959E+01 -0.1505235984E-15 -0.2329686543E+01  0.5992534982E+15  0.8834218977E+01 -0.1501782628E-15 -0.2344801765E+01
  0.1600000000E+01  0.1000000000E+01  0.1429536967E+00  0.5343042004E+01 -0.2843849614E-15 -0.2028450871E+01  0.5992534982E+15  0.5365704780E+01 -0.2848390006E-15 -0.2048913088E+01
  0.2000000000E+01  0.1000000000E+01  0.2570463033E+00  0.1873296288E-01  0.1067690628E-17  0.4987055410E+02  0.5992534982E+15  0.1802275247E-01  0.1008557483E-17  0.4987591660E+02