TITLE = "Generated from ../MESH/Convergence_0000000000.hmesh and Convergence_0000006900.hsol"
VARIABLES = "x","y","z","veloT_x","veloT_y","veloT_z","slr_4","velo_x","velo_y","velo_z"
ZONE I=6, J=6, K=1, F=POINT
  0.4000000000E+00  0.1000000000E+01  0.0000000000E+00 -0.1322370845E-01  0.2594789993E-19  0.8064213039E-02  0.7077895659E+15 -0.9682662933E-02  0.2759080483E-19  0.8017943932E-02
  0.3530110648E+00  0.1000000000E+01  0.0000000000E+00 -0.1601588219E-02  0.7827111659E-20 -0.1358931523E-03  0.7077895659E+15  0.2233588932E-02  0.8192602918E-20 -0.1188288868E-03
  0.2570463033E+00  0.1000000000E+01  0.0000000000E+00  0.2331803965E-03  0.7770645268E-21  0.2360145597E-02  0.7077895659E+15  0.3700158412E-02  0.9179329686E-21  0.2350747940E-02
  0.1429536967E+00  0.1000000000E+01  0.0000000000E+00 -0.4850849865E-03  0.2831384345E-21 -0.1121359580E-02  0.7077895659E+15  0.3400324601E-02  0.2047832292E-21 -0.1040647731E-02
  0.4698893521E-01  0.1000000000E+01  0.0000000000E+00  0.2186437414E-02 -0.2917799929E-20  0.2231538143E-02  0.7077895659E+15  0.5422765728E-02 -0.2300139747E-20  0.1641670677E-02
  0.0000000000E+00  0.1000000000E+01  0.0000000000E+00 -0.7654489316E-02  0.2019930382E-22  0.2189648450E-02  0.7077895659E+15 -0.7199670039E-02  0.1464763758E-22  0.1691645073E-02
  0.4000000000E+00  0.1000000000E+01  0.4698893521E-01  0.2655974334E+00  0.3419400035E-17 -0.4735374489E-01  0.7077895659E+15  0.2745114961E+00  0.3368354787E-17 -0.2480989694E-01
  0.3530110648E+00  0.1000000000E+01  0.4698893521E-01  0.1240999628E+00  0.3114040378E-17 -0.9424237251E-02  0.7077895659E+15  0.1370919422E+00  0.2954604620E-17  0.8973978188E-02
  0.2570463033E+00  0.1000000000E+01  0.4698893521E-01  0.9195235868E-01  0.1322146485E-17 -0.1920166959E-01  0.7077895659E+15  0.1042749378E+00  0.1319417140E-17 -0.1023522337E-01
  0.1429536967E+00  0.1000000000E+01  0.4698893521E-01 -0.5356957220E-02  0.3924788654E-18 -0.6386360694E-02  0.7077895659E+15  0.8709781146E-02  0.4307856765E-18 -0.6946131114E-02
  0.4698893521E-01  0.1000000000E+01  0.4698893521E-01 -0.7903915580E-02  0.9381523491E-19 -0.2143434947E-02  0.7077895659E+15  0.3859288199E-02  0.1074823535E-18 -0.1038426445E-01
  0.0000000000E+00  0.1000000000E+01  0.4698893521E-01 -0.1829544670E-01  0.1039997503E-20  0.1987095382E-02  0.7077895659E+15 -0.1779276886E-01  0.8902367104E-21 -0.1113866865E-02
  0.4000000000E+00  0.1000000000E+01  0.1429536967E+00  0.6243895009E+00  0.1054995909E-16 -0.1444345675E+00  0.7077895659E+15  0.6398402234E+00  0.1076786627E-16 -0.1253070228E+00
  0.3530110648E+00  0.1000000000E+01  0.1429536967E+00  0.3567111740E+00  0.6920653689E-17 -0.1785167790E+00  0.7077895659E+15  0.3794336096E+00  0.6796397078E-17 -0.1625719221E+00
  0.2570463033E+00  0.1000000000E+01  0.1429536967E+00  0.2363404164E+00  0.3089066100E-17 -0.1106685593E+00  0.7077895659E+15  0.2581099079E+00  0.3100464641E-17 -0.1024310704E+00
  0.1429536967E+00  0.1000000000E+01  0.1429536967E+00  0.2524745693E-01  0.1279584894E-17 -0.1109404537E+00  0.7077895659E+15  0.4881223526E-01  0.1279014917E-17 -0.1125548026E+00
  0.4698893521E-01  0.1000000000E+01  0.1429536967E+00 -0.1257638344E-01  0.3183169100E-18 -0.1858033195E-02  0.7077895659E+15  0.5616743027E-02  0.3627060401E-18 -0.1181556754E-01
  0.0000000000E+00  0.1000000000E+01  0.1429536967E+00 -0.2130116855E-01  0.5608290188E-21 -0.1990309428E-02  0.7077895659E+15 -0.2142941190E-01 -0.3201996369E-22 -0.5574238233E-02
  0.4000000000E+00  0.1000000000E+01  0.2570463033E+00  0.7725993719E+00  0.5265790188E-17 -0.4514953412E+00  0.7077895659E+15  0.7941072528E+00  0.5280925607E-17 -0.4484151641E+00
  0.3530110648E+00  0.1000000000E+01  0.2570463033E+00  0.5744567519E+00  0.4136475361E-17 -0.4808158826E+00  0.7077895659E+15  0.6018476809E+00  0.4157883696E-17 -0.4796565265E+00
  0.2570463033E+00  0.1000000000E+01  0.2570463033E+00  0.3390872427E+00  0.3002300208E-17 -0.3304441511E+00  0.7077895659E+15  0.3657698928E+00  0.3003437939E-17 -0.3301837218E+00
  0.1429536967E+00  0.1000000000E+01  0.2570463033E+00  0.8545117512E-01  0.2054843970E-17 -0.2892913561E+00  0.7077895659E+15  0.1171878513E+00  0.2054233971E-17 -0.2928818841E+00
  0.4698893521E-01  0.1000000000E+01  0.2570463033E+00  0.2355460040E-02  0.1294122945E-17 -0.4584029672E-01  0.7077895659E+15  0.2679704424E-01  0.1175844500E-17 -0.5495496357E-01
  0.0000000000E+00  0.1000000000E+01  0.2570463033E+00 -0.1411204179E-01 -0.4716263783E-20 -0.2408865813E-02  0.7077895659E+15 -0.1411413878E-01 -0.3903838386E-20 -0.5227283287E-02
  0.4000000000E+00  0.1000000000E+01  0.3530110648E+00  0.8517108075E+00  0.5613742270E-17 -0.7793426219E+00  0.7077895659E+15  0.8824012077E+00  0.5590862866E-17 -0.7794444534E+00
  0.3530110648E+00  0.1000000000E+01  0.3530110648E+00  0.6409262437E+00  0.4920373472E-17 -0.7663147598E+00  0.7077895659E+15  0.6712329174E+00  0.4911755624E-17 -0.7697999962E+00
  0.2570463033E+00  0.1000000000E+01  0.3530110648E+00  0.3773369573E+00  0.2671591063E-17 -0.5724591215E+00  0.7077895659E+15  0.4045347304E+00  0.2740142794E-17 -0.5773030554E+00
  0.1429536967E+00  0.1000000000E+01  0.3530110648E+00  0.9728955715E-01  0.2367609396E-17 -0.4441590459E+00  0.7077895659E+15  0.1336729364E+00  0.2429405021E-17 -0.4510634812E+00
  0.4698893521E-01  0.1000000000E+01  0.3530110648E+00  0.7063019734E-02  0.6975707880E-18 -0.1128195181E+00  0.7077895659E+15  0.3569401745E-01  0.7988836474E-18 -0.1241438125E+00
  0.0000000000E+00  0.1000000000E+01  0.3530110648E+00 -0.1431246759E-01  0.5829226597E-20 -0.3743610805E-02  0.7077895659E+15 -0.1433101918E-01  0.5274388316E-20 -0.6512161484E-02
  0.4000000000E+00  0.1000000000E+01  0.4000000000E+00  0.8580172212E+00  0.7368692822E-17 -0.9508893579E+00  0.7077895659E+15  0.8937875204E+00  0.7364454911E-17 -0.9565372681E+00
  0.3530110648E+00  0.1000000000E+01  0.4000000000E+00  0.6916701189E+00  0.6334576937E-17 -0.9247914362E+00  0.7077895659E+15  0.7239445909E+00  0.6344276843E-17 -0.9336631138E+00
  0.2570463033E+00  0.1000000000E+01  0.4000000000E+00  0.3908223902E+00  0.2774988525E-17 -0.6982570465E+00  0.7077895659E+15  0.4180336647E+00  0.2735311471E-17 -0.7082182759E+00
  0.1429536967E+00  0.1000000000E+01  0.4000000000E+00  0.1122569644E+00  0.2503284703E-17 -0.5273116897E+00  0.7077895659E+15  0.1498140572E+00  0.2414949845E-17 -0.5367118353E+00
  0.4698893521E-01  0.1000000000E+01  0.4000000000E+00  0.5133686163E-02  0.6775242571E-18 -0.1468063044E+00  0.7077895659E+15  0.3540894840E-01  0.7167906856E-18 -0.1577886654E+00
  0.0000000000E+00  0.1000000000E+01  0.4000000000E+00 -0.6769586805E-02  0.8485511966E-20 -0.5682347278E-02  0.7077895659E+15 -0.6670660172E-02  0.7692210166E-20 -0.7956484515E-02
ZONE I=6, J=6, K=1, F=POINT
  0.8000000000E+00  0.1000000000E+01  0.0000000000E+00  0.1217426158E-01 -0.8766986396E-19 -0.1202971541E-01  0.7077895659E+15  0.1724494905E-01 -0.9046506007E-19 -0.1202354661E-01
  0.7530110648E+00  0.1000000000E+01  0.0000000000E+00 -0.3186283482E-02 -0.4266510861E-19  0.5959351325E-02  0.7077895659E+15  0.1930816413E-02  0.6987921295E-19  0.5929384629E-02
  0.6570463033E+00  0.1000000000E+01  0.0000000000E+00 -0.4763315590E-02 -0.3525267404E-19  0.4082631708E-03  0.7077895659E+15  0.1025292913E-03  0.2921334266E-19  0.3814488487E-03
  0.5429536967E+00  0.1000000000E+01  0.0000000000E+00 -0.2456492362E-02 -0.5916526775E-19  0.7322650901E-02  0.7077895659E+15  0.1960304037E-02  0.5572104595E-19  0.7163085272E-02
  0.4469889352E+00  0.1000000000E+01  0.0000000000E+00 -0.4213849578E-02 -0.1089549754E-18  0.9818938555E-03  0.7077895659E+15 -0.1172444215E-03  0.1816855923E-19  0.8783553718E-03
  0.4000000000E+00  0.1000000000E+01  0.0000000000E+00  0.1333667517E-01  0.2960178412E-19  0.7747869423E-02  0.7077895659E+15  0.1721759802E-01  0.3111417585E-19  0.7709966691E-02
  0.8000000000E+00  0.1000000000E+01  0.4698893521E-01  0.3834198359E+00 -0.2248048641E-16  0.7691150529E-02  0.7077895659E+15  0.3868527773E+00 -0.2250845753E-16  0.2274478288E-01
  0.7530110648E+00  0.1000000000E+01  0.4698893521E-01  0.5711164911E+00 -0.2138311464E-16 -0.5254234333E-01  0.7077895659E+15  0.5744345784E+00 -0.2159633685E-16 -0.3587215078E-01
  0.6570463033E+00  0.1000000000E+01  0.4698893521E-01  0.3356867259E+00 -0.4011010120E-17 -0.2728084605E-01  0.7077895659E+15  0.3404611295E+00 -0.3921082887E-17 -0.6000603174E-02
  0.5429536967E+00  0.1000000000E+01  0.4698893521E-01  0.3467956327E+00  0.4559015566E-17 -0.1975802365E-01  0.7077895659E+15  0.3529346166E+00  0.4678344770E-17  0.3809685195E-02
  0.4469889352E+00  0.1000000000E+01  0.4698893521E-01  0.2047528995E+00  0.4416855568E-17 -0.6997523884E-02  0.7077895659E+15  0.2121211338E+00  0.4351339879E-17  0.1695292220E-01
  0.4000000000E+00  0.1000000000E+01  0.4698893521E-01  0.3066158015E+00  0.3185004642E-17 -0.4811571997E-01  0.7077895659E+15  0.3161648935E+00  0.3129725854E-17 -0.2555335423E-01
  0.8000000000E+00  0.1000000000E+01  0.1429536967E+00  0.1271128563E+01 -0.5128772304E-16 -0.3960769466E+00  0.7077895659E+15  0.1272020270E+01 -0.5123630484E-16 -0.3735023621E+00
  0.7530110648E+00  0.1000000000E+01  0.1429536967E+00  0.1541292652E+01 -0.3122414541E-16 -0.2511602208E+00  0.7077895659E+15  0.1540287782E+01 -0.3137740185E-16 -0.2273350265E+00
  0.6570463033E+00  0.1000000000E+01  0.1429536967E+00  0.1046222655E+01 -0.1332039280E-17 -0.2443957509E+00  0.7077895659E+15  0.1049986669E+01 -0.1470048471E-17 -0.2205024971E+00
  0.5429536967E+00  0.1000000000E+01  0.1429536967E+00  0.9134245641E+00  0.1055396254E-16 -0.9337174393E-01  0.7077895659E+15  0.9197530572E+00  0.1074903794E-16 -0.7276764066E-01
  0.4469889352E+00  0.1000000000E+01  0.1429536967E+00  0.5677494385E+00  0.1081092947E-16 -0.1701119500E+00  0.7077895659E+15  0.5754966084E+00  0.1065804389E-16 -0.1500194186E+00
  0.4000000000E+00  0.1000000000E+01  0.1429536967E+00  0.6755852585E+00  0.1125298161E-16 -0.1438838345E+00  0.7077895659E+15  0.6908471592E+00  0.1146958864E-16 -0.1247647440E+00
  0.8000000000E+00  0.1000000000E+01  0.2570463033E+00  0.2484300130E+01 -0.9250828341E-17 -0.1038427752E+01  0.7077895659E+15  0.2484586826E+01 -0.9260495757E-17 -0.1015586198E+01
  0.7530110648E+00  0.1000000000E+01  0.2570463033E+00  0.2310382403E+01 -0.5582593566E-17 -0.7818216539E+00  0.7077895659E+15  0.2310892608E+01 -0.5276916933E-17 -0.7599988551E+00
  0.6570463033E+00  0.1000000000E+01  0.2570463033E+00  0.1746359605E+01 -0.6784161431E-18 -0.7137051341E+00  0.7077895659E+15  0.1753684592E+01 -0.8812686680E-18 -0.6942560673E+00
  0.5429536967E+00  0.1000000000E+01  0.2570463033E+00  0.1291457376E+01  0.4624451751E-17 -0.4428252564E+00  0.7077895659E+15  0.1302309339E+01  0.4800526825E-17 -0.4250374622E+00
  0.4469889352E+00  0.1000000000E+01  0.2570463033E+00  0.8792830177E+00  0.5334421503E-17 -0.5171910415E+00  0.7077895659E+15  0.8926787478E+00  0.5429013567E-17 -0.5090035247E+00
  0.4000000000E+00  0.1000000000E+01  0.2570463033E+00  0.8041989532E+00  0.5291603767E-17 -0.4508363705E+00  0.7077895659E+15  0.8248598026E+00  0.5307332209E-17 -0.4477921592E+00
  0.8000000000E+00  0.1000000000E+01  0.3530110648E+00  0.2868138578E+01  0.4754913694E-17 -0.1634328729E+01  0.7077895659E+15  0.2867263128E+01  0.4740727076E-17 -0.1615705398E+01
  0.7530110648E+00  0.1000000000E+01  0.3530110648E+00  0.2706011263E+01  0.8871138262E-17 -0.1405159685E+01  0.7077895659E+15  0.2709822764E+01  0.9074259969E-17 -0.1386717063E+01
  0.6570463033E+00  0.1000000000E+01  0.3530110648E+00  0.2079815738E+01  0.1040188206E-17 -0.1210974796E+01  0.7077895659E+15  0.2081088794E+01  0.6529078290E-18 -0.1185930084E+01
  0.5429536967E+00  0.1000000000E+01  0.3530110648E+00  0.1494459944E+01  0.1681511024E-17 -0.8829109596E+00  0.7077895659E+15  0.1511007247E+01  0.3734002968E-18 -0.8484868825E+00
  0.4469889352E+00  0.1000000000E+01  0.3530110648E+00  0.9494768315E+00  0.5318464299E-17 -0.8592148548E+00  0.7077895659E+15  0.9849512505E+00  0.5300231180E-17 -0.8469246689E+00
  0.4000000000E+00  0.1000000000E+01  0.3530110648E+00  0.8849360403E+00  0.5599202993E-17 -0.7791779723E+00  0.7077895659E+15  0.9153335127E+00  0.5572316121E-17 -0.7792530805E+00
  0.8000000000E+00  0.1000000000E+01  0.4000000000E+00  0.3030315299E+01 -0.2295566388E-17 -0.1985625511E+01  0.7077895659E+15  0.3025984519E+01 -0.2295339402E-17 -0.1979828301E+01
  0.7530110648E+00  0.1000000000E+01  0.4000000000E+00  0.2731606880E+01  0.7240755056E-18 -0.1691693964E+01  0.7077895659E+15  0.2734654219E+01  0.7249366212E-18 -0.1682682143E+01
  0.6570463033E+00  0.1000000000E+01  0.4000000000E+00  0.2150738691E+01  0.2252971201E-17 -0.1466380046E+01  0.7077895659E+15  0.2143955757E+01  0.2373918490E-17 -0.1445100256E+01
  0.5429536967E+00  0.1000000000E+01  0.4000000000E+00  0.1518543945E+01  0.7989312152E-17 -0.1127173524E+01  0.7077895659E+15  0.1538614124E+01  0.8749551087E-17 -0.1093747053E+01
  0.4469889352E+00  0.1000000000E+01  0.4000000000E+00  0.1019827650E+01  0.6835956114E-17 -0.1049454470E+01  0.7077895659E+15  0.1072389867E+01  0.7911608104E-17 -0.1042632068E+01
  0.4000000000E+00  0.1000000000E+01  0.4000000000E+00  0.8703626053E+00  0.7398284153E-17 -0.9501680063E+00  0.7077895659E+15  0.9061698997E+00  0.7390837573E-17 -0.9558533828E+00
ZONE I=6, J=6, K=1, F=POINT
  0.1200000000E+01  0.1000000000E+01  0.0000000000E+00 -0.4057856504E-01  0.5521916385E-19  0.3691447698E-01  0.7077895659E+15 -0.3597408967E-01  0.5595254382E-19  0.3675487446E-01
  0.1153011065E+01  0.1000000000E+01  0.0000000000E+00 -0.1313619453E-01 -0.6035735367E-18 -0.9471788947E-02  0.7077895659E+15 -0.8979245880E-02 -0.4325004310E-18 -0.9425574114E-02
  0.1057046303E+01  0.1000000000E+01  0.0000000000E+00 -0.5284155228E-02 -0.1722206890E-18  0.5970265133E-02  0.7077895659E+15 -0.7573411292E-03 -0.5530978633E-19  0.6032289233E-02
  0.9429536967E+00  0.1000000000E+01  0.0000000000E+00 -0.9106729149E-02 -0.3352966395E-20 -0.8248304196E-02  0.7077895659E+15 -0.4183244338E-02 -0.5162877380E-20 -0.8233299955E-02
  0.8469889352E+00  0.1000000000E+01  0.0000000000E+00 -0.2895860090E-02 -0.2372044091E-19  0.5376082327E-02  0.7077895659E+15  0.1992471478E-02 -0.2703374173E-19  0.5353839723E-02
  0.8000000000E+00  0.1000000000E+01  0.0000000000E+00 -0.3329018816E-01 -0.9783546458E-19 -0.1150063767E-01  0.7077895659E+15 -0.2828182440E-01 -0.1006528691E-18 -0.1148006039E-01
  0.1200000000E+01  0.1000000000E+01  0.4698893521E-01  0.2315210289E+01 -0.4118326801E-16 -0.2309343159E+00  0.7077895659E+15  0.2313397243E+01 -0.4109531618E-16 -0.2147967990E+00
  0.1153011065E+01  0.1000000000E+01  0.4698893521E-01  0.1618392483E+01 -0.2512741013E-16 -0.8265318564E-01  0.7077895659E+15  0.1615782736E+01 -0.2507343870E-16 -0.6665837051E-01
  0.1057046303E+01  0.1000000000E+01  0.4698893521E-01  0.1466869383E+01 -0.1160594259E-16 -0.1106659657E+00  0.7077895659E+15  0.1465706337E+01 -0.1159335277E-16 -0.9457877056E-01
  0.9429536967E+00  0.1000000000E+01  0.4698893521E-01  0.8367093565E+00 -0.1321218345E-16 -0.9029458158E-01  0.7077895659E+15  0.8381834943E+00 -0.1324037979E-16 -0.7334387837E-01
  0.8469889352E+00  0.1000000000E+01  0.4698893521E-01  0.7196534667E+00 -0.2596638410E-16 -0.8034269270E-01  0.7077895659E+15  0.7226797562E+00 -0.2611588342E-16 -0.6502770522E-01
  0.8000000000E+00  0.1000000000E+01  0.4698893521E-01  0.3224839581E+00 -0.2178045296E-16  0.9756985369E-02  0.7077895659E+15  0.3260505757E+00 -0.2181341369E-16  0.2475018480E-01
  0.1200000000E+01  0.1000000000E+01  0.1429536967E+00  0.5458547655E+01 -0.5766483531E-16 -0.6663602580E+00  0.7077895659E+15  0.5458292809E+01 -0.5752987267E-16 -0.6572881554E+00
  0.1153011065E+01  0.1000000000E+01  0.1429536967E+00  0.3988922783E+01 -0.6773371152E-16 -0.8767902140E+00  0.7077895659E+15  0.3985682264E+01 -0.6801606069E-16 -0.8657727227E+00
  0.1057046303E+01  0.1000000000E+01  0.1429536967E+00  0.3564764058E+01 -0.3584139213E-16 -0.6630584582E+00  0.7077895659E+15  0.3560372525E+01 -0.3583322646E-16 -0.6471042786E+00
  0.9429536967E+00  0.1000000000E+01  0.1429536967E+00  0.2248190073E+01 -0.3134508427E-16 -0.7682509611E+00  0.7077895659E+15  0.2248964425E+01 -0.3132309162E-16 -0.7466156632E+00
  0.8469889352E+00  0.1000000000E+01  0.1429536967E+00  0.1920425009E+01 -0.4689918497E-16 -0.4151071288E+00  0.7077895659E+15  0.1924901004E+01 -0.4711371656E-16 -0.3927306757E+00
  0.8000000000E+00  0.1000000000E+01  0.1429536967E+00  0.1186722149E+01 -0.5352760193E-16 -0.3977333451E+00  0.7077895659E+15  0.1189411116E+01 -0.5349032549E-16 -0.3751150194E+00
  0.1200000000E+01  0.1000000000E+01  0.2570463033E+00  0.6004468217E+01 -0.7595954719E-17 -0.1800146767E+01  0.7077895659E+15  0.5991724996E+01 -0.7515578789E-17 -0.1807353019E+01
  0.1153011065E+01  0.1000000000E+01  0.2570463033E+00  0.5448804903E+01 -0.3435668822E-16 -0.2063725594E+01  0.7077895659E+15  0.5436007864E+01 -0.3300872177E-16 -0.2066963965E+01
  0.1057046303E+01  0.1000000000E+01  0.2570463033E+00  0.4555734256E+01 -0.2884907258E-16 -0.1688784348E+01  0.7077895659E+15  0.4542933722E+01 -0.2887326149E-16 -0.1682418203E+01
  0.9429536967E+00  0.1000000000E+01  0.2570463033E+00  0.3503998636E+01 -0.2539489195E-16 -0.1743086362E+01  0.7077895659E+15  0.3498548426E+01 -0.2509737642E-16 -0.1728176490E+01
  0.8469889352E+00  0.1000000000E+01  0.2570463033E+00  0.2883713774E+01 -0.1089092181E-16 -0.1112343425E+01  0.7077895659E+15  0.2885633866E+01 -0.1056066129E-16 -0.1091000130E+01
  0.8000000000E+00  0.1000000000E+01  0.2570463033E+00  0.2446600266E+01 -0.9401405399E-17 -0.1041101396E+01  0.7077895659E+15  0.2447698288E+01 -0.9387589246E-17 -0.1017819220E+01
  0.1200000000E+01  0.1000000000E+01  0.3530110648E+00  0.6508601605E+01  0.2822075271E-16 -0.2985715370E+01  0.7077895659E+15  0.6489184409E+01  0.2827189784E-16 -0.2989948626E+01
  0.1153011065E+01  0.1000000000E+01  0.3530110648E+00  0.5754369502E+01  0.1130414883E-16 -0.2944566605E+01  0.7077895659E+15  0.5732057691E+01  0.1160658007E-16 -0.2945168363E+01
  0.1057046303E+01  0.1000000000E+01  0.3530110648E+00  0.4954813450E+01 -0.7507507629E-17 -0.2615497285E+01  0.7077895659E+15  0.4935498025E+01 -0.7553674923E-17 -0.2610649316E+01
  0.9429536967E+00  0.1000000000E+01  0.3530110648E+00  0.3913248794E+01 -0.1196865902E-16 -0.2427816636E+01  0.7077895659E+15  0.3901520716E+01 -0.1164808685E-16 -0.2418626572E+01
  0.8469889352E+00  0.1000000000E+01  0.3530110648E+00  0.3352149494E+01  0.1169091622E-17 -0.1821997866E+01  0.7077895659E+15  0.3347321527E+01  0.8881615678E-18 -0.1806680197E+01
  0.8000000000E+00  0.1000000000E+01  0.3530110648E+00  0.2821067761E+01  0.4814403952E-17 -0.1634661147E+01  0.7077895659E+15  0.2821234587E+01  0.4818630277E-17 -0.1616049008E+01
  0.1200000000E+01  0.1000000000E+01  0.4000000000E+00  0.6318301893E+01  0.3128317918E-16 -0.3320297051E+01  0.7077895659E+15  0.6294650262E+01  0.3131347150E-16 -0.3318676503E+01
  0.1153011065E+01  0.1000000000E+01  0.4000000000E+00  0.5922944851E+01  0.2393096133E-16 -0.3476248817E+01  0.7077895659E+15  0.5898215630E+01  0.2322230108E-16 -0.3474104857E+01
  0.1057046303E+01  0.1000000000E+01  0.4000000000E+00  0.4977370402E+01  0.1396055757E-17 -0.3043678636E+01  0.7077895659E+15  0.4957428169E+01  0.1004380522E-17 -0.3042272925E+01
  0.9429536967E+00  0.1000000000E+01  0.4000000000E+00  0.4050378276E+01 -0.1260618625E-16 -0.2837249379E+01  0.7077895659E+15  0.4037063420E+01 -0.1248949128E-16 -0.2836563442E+01
  0.8469889352E+00  0.1000000000E+01  0.4000000000E+00  0.3370035413E+01 -0.7394874332E-17 -0.2142796776E+01  0.7077895659E+15  0.3362388500E+01 -0.7423302598E-17 -0.2140484338E+01
  0.8000000000E+00  0.1000000000E+01  0.4000000000E+00  0.3026028057E+01 -0.2273082869E-17 -0.1989146634E+01  0.7077895659E+15  0.3021805894E+01 -0.2270497487E-17 -0.1982794264E+01
ZONE I=6, J=6, K=1, F=POINT
  0.1600000000E+01  0.1000000000E+01  0.0000000000E+00  0.1199129281E+00 -0.9439151642E-18 -0.7118831890E-01  0.7077895659E+15  0.1226297642E+00 -0.1064344708E-17 -0.7112237168E-01
  0.1553011065E+01  0.1000000000E+01  0.0000000000E+00  0.2955659694E-04 -0.8155059940E-18  0.4522740440E-01  0.7077895659E+15  0.3107108691E-02 -0.9776382667E-18  0.4515252280E-01
  0.1457046303E+01  0.1000000000E+01  0.0000000000E+00 -0.1700831563E-01  0.1267207396E-18 -0.3185122231E-02  0.7077895659E+15 -0.1356468449E-01  0.2587591259E-19 -0.3118880107E-02
  0.1342953697E+01  0.1000000000E+01  0.0000000000E+00 -0.4100396456E-02 -0.1164788886E-18  0.2982957286E-01  0.7077895659E+15  0.2565741316E-03  0.1249837984E-18  0.2972965574E-01
  0.1246988935E+01  0.1000000000E+01  0.0000000000E+00 -0.1662468886E-01  0.9116827624E-19 -0.8039043003E-02  0.7077895659E+15 -0.1183379396E-01  0.1343609545E-18 -0.8059002445E-02
  0.1200000000E+01  0.1000000000E+01  0.0000000000E+00  0.4930123125E-01  0.5739269069E-19  0.3692243019E-01  0.7077895659E+15  0.5397771131E-01  0.5873267020E-19  0.3678203954E-01
  0.1600000000E+01  0.1000000000E+01  0.4698893521E-01  0.2973893874E+01 -0.8720469867E-16  0.2088374722E+00  0.7077895659E+15  0.2962471780E+01 -0.8695914146E-16  0.2366999980E+00
  0.1553011065E+01  0.1000000000E+01  0.4698893521E-01  0.3503985109E+01 -0.4423676065E-16 -0.2936542909E+00  0.7077895659E+15  0.3497248599E+01 -0.4446129321E-16 -0.2688109749E+00
  0.1457046303E+01  0.1000000000E+01  0.4698893521E-01  0.2583916330E+01 -0.4109653544E-17 -0.1082903923E+00  0.7077895659E+15  0.2579187631E+01 -0.3947056841E-17 -0.9245418166E-01
  0.1342953697E+01  0.1000000000E+01  0.4698893521E-01  0.2621015060E+01  0.2805266269E-16 -0.8467379627E-01  0.7077895659E+15  0.2616449973E+01  0.2801800876E-16 -0.7164893488E-01
  0.1246988935E+01  0.1000000000E+01  0.4698893521E-01  0.2049633875E+01 -0.8090378344E-17 -0.5742732578E-01  0.7077895659E+15  0.2046838557E+01 -0.8196827026E-17 -0.4217673367E-01
  0.1200000000E+01  0.1000000000E+01  0.4698893521E-01  0.2414492381E+01 -0.4542488252E-16 -0.2366327452E+00  0.7077895659E+15  0.2410800545E+01 -0.4531754126E-16 -0.2200953707E+00
  0.1600000000E+01  0.1000000000E+01  0.1429536967E+00  0.6435270514E+01 -0.2698064651E-15 -0.1744570547E+01  0.7077895659E+15  0.6406208140E+01 -0.2704229179E-15 -0.1731236798E+01
  0.1553011065E+01  0.1000000000E+01  0.1429536967E+00  0.8187445072E+01 -0.1421938534E-15 -0.9059643628E+00  0.7077895659E+15  0.8187007308E+01 -0.1424645727E-15 -0.8921706669E+00
  0.1457046303E+01  0.1000000000E+01  0.1429536967E+00  0.6235833774E+01  0.2746639151E-16 -0.8986228196E+00  0.7077895659E+15  0.6238932560E+01  0.2749085437E-16 -0.8905436981E+00
  0.1342953697E+01  0.1000000000E+01  0.1429536967E+00  0.6270690514E+01  0.9774103815E-16 -0.2159294460E+00  0.7077895659E+15  0.6265236362E+01  0.9756421708E-16 -0.2118276701E+00
  0.1246988935E+01  0.1000000000E+01  0.1429536967E+00  0.4917696676E+01  0.2726554063E-16 -0.7922662639E+00  0.7077895659E+15  0.4911987200E+01  0.2780132274E-16 -0.7852375879E+00
  0.1200000000E+01  0.1000000000E+01  0.1429536967E+00  0.5625692701E+01 -0.6182686130E-16 -0.6607525566E+00  0.7077895659E+15  0.5614280327E+01 -0.6159382128E-16 -0.6524669543E+00
  0.1600000000E+01  0.1000000000E+01  0.2570463033E+00  0.1155377136E+02  0.1013040810E-15 -0.3410688354E+01  0.7077895659E+15  0.1154550841E+02  0.1011908518E-15 -0.3422010734E+01
  0.1553011065E+01  0.1000000000E+01  0.2570463033E+00  0.1054049191E+02  0.1228090652E-15 -0.2327293263E+01  0.7077895659E+15  0.1054515204E+02  0.1225862161E-15 -0.2335161533E+01
  0.1457046303E+01  0.1000000000E+01  0.2570463033E+00  0.9288286686E+01  0.1770127621E-15 -0.2243414885E+01  0.7077895659E+15  0.9296335384E+01  0.1773808515E-15 -0.2255095731E+01
  0.1342953697E+01  0.1000000000E+01  0.2570463033E+00  0.7735500683E+01  0.1255316514E-15 -0.1203420753E+01  0.7077895659E+15  0.7732006645E+01  0.1253260155E-15 -0.1216330788E+01
  0.1246988935E+01  0.1000000000E+01  0.2570463033E+00  0.6492552803E+01  0.3808233624E-16 -0.2013869362E+01  0.7077895659E+15  0.6481729699E+01  0.3742448378E-16 -0.2023872889E+01
  0.1200000000E+01  0.1000000000E+01  0.2570463033E+00  0.6044493069E+01 -0.7852832702E-17 -0.1790249151E+01  0.7077895659E+15  0.6031196610E+01 -0.7736824729E-17 -0.1800416731E+01
  0.1600000000E+01  0.1000000000E+01  0.3530110648E+00  0.1020372304E+02  0.2048029187E-15 -0.3749790681E+01  0.7077895659E+15  0.1019012133E+02  0.2047273150E-15 -0.3763392085E+01
  0.1553011065E+01  0.1000000000E+01  0.3530110648E+00  0.1045103831E+02  0.2051314215E-15 -0.3690996518E+01  0.7077895659E+15  0.1046164089E+02  0.2051719370E-15 -0.3708181091E+01
  0.1457046303E+01  0.1000000000E+01  0.3530110648E+00  0.9353210671E+01  0.1865159305E-15 -0.3364680075E+01  0.7077895659E+15  0.9363101062E+01  0.1873409054E-15 -0.3385069555E+01
  0.1342953697E+01  0.1000000000E+01  0.3530110648E+00  0.8141349077E+01  0.1392429208E-15 -0.2721172551E+01  0.7077895659E+15  0.8134316641E+01  0.1391391069E-15 -0.2734494901E+01
  0.1246988935E+01  0.1000000000E+01  0.3530110648E+00  0.6724065139E+01  0.5873184166E-16 -0.3010393516E+01  0.7077895659E+15  0.6709599592E+01  0.5931268710E-16 -0.3016803135E+01
  0.1200000000E+01  0.1000000000E+01  0.3530110648E+00  0.6587013385E+01  0.2834011153E-16 -0.2985953284E+01  0.7077895659E+15  0.6563320922E+01  0.2835675660E-16 -0.2989973327E+01
  0.1600000000E+01  0.1000000000E+01  0.4000000000E+00  0.1045549470E+02  0.2053660081E-15 -0.4387137861E+01  0.7077895659E+15  0.1044680605E+02  0.2052884939E-15 -0.4432930738E+01
  0.1553011065E+01  0.1000000000E+01  0.4000000000E+00  0.9850997328E+01  0.2164308045E-15 -0.3658520499E+01  0.7077895659E+15  0.9863993241E+01  0.2166030141E-15 -0.3697882241E+01
  0.1457046303E+01  0.1000000000E+01  0.4000000000E+00  0.9333156017E+01  0.1803292929E-15 -0.3877450690E+01  0.7077895659E+15  0.9339238954E+01  0.1802534387E-15 -0.3906309576E+01
  0.1342953697E+01  0.1000000000E+01  0.4000000000E+00  0.7975269688E+01  0.1421312573E-15 -0.3131372742E+01  0.7077895659E+15  0.7964557564E+01  0.1414337083E-15 -0.3145423597E+01
  0.1246988935E+01  0.1000000000E+01  0.4000000000E+00  0.6922800336E+01  0.5558865123E-16 -0.3594632198E+01  0.7077895659E+15  0.6904073268E+01  0.5563793278E-16 -0.3596162522E+01
  0.1200000000E+01  0.1000000000E+01  0.4000000000E+00  0.6291892432E+01  0.3153601028E-16 -0.3307845963E+01  0.7077895659E+15  0.6269654990E+01  0.3153768867E-16 -0.3309154400E+01
ZONE I=6, J=6, K=1, F=POINT
  0.2000000000E+01  0.1000000000E+01  0.0000000000E+00  0.2400807986E+01  0.7115241304E-19  0.2123300616E+02  0.7077895659E+15  0.2428367252E+01  0.9172947451E-19  0.2215365803E+02
  0.1953011065E+01  0.1000000000E+01  0.0000000000E+00  0.1281514076E+01 -0.3707923325E-16 -0.1387472415E+00  0.7077895659E+15  0.1286346469E+01 -0.3586359334E-16 -0.1523300104E+00
  0.1857046303E+01  0.1000000000E+01  0.0000000000E+00 -0.3192911576E+00 -0.1950841480E-16  0.1522427431E+00  0.7077895659E+15 -0.3183116333E+00 -0.1990152522E-16  0.1508671391E+00
  0.1742953697E+01  0.1000000000E+01  0.0000000000E+00  0.1228231563E+00  0.1761806178E-18 -0.3720911250E-01  0.7077895659E+15  0.1257162997E+00  0.6115898381E-19 -0.3696389670E-01
  0.1646988935E+01  0.1000000000E+01  0.0000000000E+00 -0.1395674325E+00  0.3441868125E-18  0.6061260242E-01  0.7077895659E+15 -0.1361313859E+00  0.2966468497E-18  0.5978305018E-01
  0.1600000000E+01  0.1000000000E+01  0.0000000000E+00  0.7838039949E-01 -0.1021890168E-17 -0.8324462013E-01  0.7077895659E+15  0.8067366046E-01 -0.1143684852E-17 -0.8179189183E-01
  0.2000000000E+01  0.1000000000E+01  0.4698893521E-01 -0.1421832763E-01  0.7514239670E-18  0.4847196121E+02  0.7077895659E+15 -0.5748336740E-01  0.6818426712E-18  0.4864798756E+02
  0.1953011065E+01  0.1000000000E+01  0.4698893521E-01  0.1093872520E+02  0.1350278511E-15  0.1444058849E+01  0.7077895659E+15  0.1090764711E+02  0.1336416279E-15  0.1445184121E+01
  0.1857046303E+01  0.1000000000E+01  0.4698893521E-01  0.1157527090E+02  0.2844026305E-15 -0.1921384102E+01  0.7077895659E+15  0.1155606642E+02  0.2832068317E-15 -0.1927294469E+01
  0.1742953697E+01  0.1000000000E+01  0.4698893521E-01  0.5671028057E+01 -0.4347376866E-16 -0.6738552809E+00  0.7077895659E+15  0.5656433311E+01 -0.4306442471E-16 -0.6699569308E+00
  0.1646988935E+01  0.1000000000E+01  0.4698893521E-01  0.4412152157E+01 -0.1206057036E-15 -0.6520968696E+00  0.7077895659E+15  0.4392668567E+01 -0.1198082684E-15 -0.6275440169E+00
  0.1600000000E+01  0.1000000000E+01  0.4698893521E-01  0.2809098065E+01 -0.8435103368E-16  0.1947129294E+00  0.7077895659E+15  0.2807188365E+01 -0.8393690909E-16  0.2172398405E+00
  0.2000000000E+01  0.1000000000E+01  0.1429536967E+00 -0.2819088400E+00  0.2729785239E-17  0.5048912766E+02  0.7077895659E+15 -0.2574669286E+00  0.2789125947E-17  0.5042841765E+02
  0.1953011065E+01  0.1000000000E+01  0.1429536967E+00  0.2759987504E+01 -0.5121989137E-15  0.1631890856E+02  0.7077895659E+15  0.2726921650E+01 -0.5138417199E-15  0.1633520899E+02
  0.1857046303E+01  0.1000000000E+01  0.1429536967E+00  0.1264074101E+02 -0.2640949748E-15 -0.3704971748E+01  0.7077895659E+15  0.1261011621E+02 -0.2624946833E-15 -0.3719929548E+01
  0.1742953697E+01  0.1000000000E+01  0.1429536967E+00  0.9926225169E+01 -0.3713408479E-16 -0.4076772571E+01  0.7077895659E+15  0.9891196425E+01 -0.4104376990E-16 -0.4087298712E+01
  0.1646988935E+01  0.1000000000E+01  0.1429536967E+00  0.9355348235E+01 -0.1630301766E-15 -0.2016565271E+01  0.7077895659E+15  0.9319755188E+01 -0.1630351510E-15 -0.2006247002E+01
  0.1600000000E+01  0.1000000000E+01  0.1429536967E+00  0.6062361268E+01 -0.2864496175E-15 -0.1744854702E+01  0.7077895659E+15  0.6074424701E+01 -0.2874151241E-15 -0.1735914595E+01
  0.2000000000E+01  0.1000000000E+01  0.2570463033E+00  0.1874117991E-01  0.1126451350E-17  0.4985890790E+02  0.7077895659E+15  0.1773509435E-01  0.1090886254E-17  0.4986700842E+02