TITLE = "Generated from ../MESH/Convergence_0000000000.hmesh and Convergence_0000000400.hsol"
VARIABLES = "x","y","z","veloT_x","veloT_y","veloT_z","slr_4","velo_x","velo_y","velo_z"
ZONE I=6, J=6, K=1, F=POINT
  0.4000000000E+00  0.1000000000E+01  0.0000000000E+00 -0.1188011300E-01  0.2899350029E-19  0.6581394330E-02  0.6622135680E+15 -0.7098943910E-02  0.3086002209E-19  0.6521961663E-02
  0.3530110648E+00  0.1000000000E+01  0.0000000000E+00 -0.2043251413E-02  0.6549183336E-20 -0.6772915607E-03  0.6622135680E+15  0.5626425475E-02  0.8053966773E-20 -0.4492905446E-03
  0.2570463033E+00  0.1000000000E+01  0.0000000000E+00 -0.1923099527E-02 -0.3783323281E-21  0.2100678713E-02  0.6622135680E+15  0.5847378625E-02  0.9513750531E-21  0.2165448083E-02
  0.1429536967E+00  0.1000000000E+01  0.0000000000E+00 -0.6901654693E-02  0.1354157922E-21 -0.1364571423E-02  0.6622135680E+15  0.4162558380E-02  0.6312289085E-21 -0.9268457543E-03
  0.4698893521E-01  0.1000000000E+01  0.0000000000E+00 -0.5116535392E-02 -0.3613426554E-20  0.3675564671E-02  0.6622135680E+15  0.5331551468E-02 -0.2916823852E-20  0.2555000509E-02
  0.0000000000E+00  0.1000000000E+01  0.0000000000E+00 -0.9926429559E-02  0.2234331122E-22  0.3948929372E-02  0.6622135680E+15 -0.8809237988E-02  0.1911382598E-22  0.2842625762E-02
  0.4000000000E+00  0.1000000000E+01  0.4698893521E-01  0.1613737526E+00  0.4867269896E-18 -0.3367530678E-01  0.6622135680E+15  0.1768545392E+00  0.4064081847E-18 -0.9241333805E-01
  0.3530110648E+00  0.1000000000E+01  0.4698893521E-01 -0.1643527288E-01  0.6182632042E-18  0.1208583022E-01  0.6622135680E+15  0.4676494288E-02  0.4724066385E-18 -0.4716577403E-01
  0.2570463033E+00  0.1000000000E+01  0.4698893521E-01 -0.4737960724E-01  0.9930984227E-19  0.1121858586E-01  0.6622135680E+15 -0.3361831226E-01  0.3407999822E-20 -0.4211249929E-01
  0.1429536967E+00  0.1000000000E+01  0.4698893521E-01 -0.1054947754E+00 -0.1884660343E-18  0.3493112327E-01  0.6622135680E+15 -0.9153930229E-01 -0.1677011156E-18  0.7297714130E-02
  0.4698893521E-01  0.1000000000E+01  0.4698893521E-01 -0.4227604300E-01 -0.1286474869E-18  0.3078368854E-01  0.6622135680E+15 -0.2682304813E-01 -0.1058425953E-18  0.1437589429E-01
  0.0000000000E+00  0.1000000000E+01  0.4698893521E-01 -0.2318553740E-01  0.5598747268E-21  0.9779797234E-02  0.6622135680E+15 -0.2205452404E-01  0.5964513537E-21 -0.6953145538E-03
  0.4000000000E+00  0.1000000000E+01  0.1429536967E+00  0.2675170816E+00  0.5050238165E-17 -0.1011597052E+00  0.6622135680E+15  0.2782758733E+00  0.5203282477E-17 -0.1378335073E+00
  0.3530110648E+00  0.1000000000E+01  0.1429536967E+00  0.1149577444E-01  0.1560123140E-17 -0.1300839800E+00  0.6622135680E+15  0.3262542162E-01  0.1783519354E-17 -0.1651504582E+00
  0.2570463033E+00  0.1000000000E+01  0.1429536967E+00 -0.2329999720E-01  0.1398779531E-18 -0.1967520878E-01  0.6622135680E+15 -0.2857848574E-01  0.1237569130E-18 -0.4416156740E-01
  0.1429536967E+00  0.1000000000E+01  0.1429536967E+00 -0.1172832001E+00 -0.3981950549E-19  0.3709461948E-01  0.6622135680E+15 -0.1188007328E+00 -0.4434622625E-19  0.2949179477E-01
  0.4698893521E-01  0.1000000000E+01  0.1429536967E+00 -0.5101844195E-01 -0.2082206782E-18  0.9763707711E-01  0.6622135680E+15 -0.2964354153E-01 -0.1385760562E-18  0.8227567207E-01
  0.0000000000E+00  0.1000000000E+01  0.1429536967E+00 -0.2408996711E-01 -0.2154817264E-21  0.4825028799E-02  0.6622135680E+15 -0.2441327994E-01 -0.6404778882E-22 -0.6267733961E-02
  0.4000000000E+00  0.1000000000E+01  0.2570463033E+00  0.2482169894E+00  0.4152038481E-18 -0.2449198333E+00  0.6622135680E+15  0.2538619318E+00  0.4184366597E-18 -0.2544936724E+00
  0.3530110648E+00  0.1000000000E+01  0.2570463033E+00  0.1536656058E+00 -0.2312224608E-18 -0.2803045058E+00  0.6622135680E+15  0.1678982837E+00 -0.3359713013E-18 -0.2876566801E+00
  0.2570463033E+00  0.1000000000E+01  0.2570463033E+00  0.1224499574E+00 -0.1519264185E-18 -0.9429574882E-01  0.6622135680E+15  0.1034333947E+00 -0.1530328278E-18 -0.9449912096E-01
  0.1429536967E+00  0.1000000000E+01  0.2570463033E+00  0.1623799947E-01  0.1791456712E-18 -0.2189140666E-01  0.6622135680E+15  0.2161373624E-01  0.1795366345E-18 -0.2358281550E-01
  0.4698893521E-01  0.1000000000E+01  0.2570463033E+00 -0.1509404667E-01  0.8854505802E-18  0.1006244840E+00  0.6622135680E+15  0.2678100134E-01  0.6938207951E-18  0.8571895367E-01
  0.0000000000E+00  0.1000000000E+01  0.2570463033E+00 -0.1666966033E-01 -0.6770504737E-20  0.1405485057E-02  0.6622135680E+15 -0.1672679381E-01 -0.5966600463E-20 -0.6831803922E-02
  0.4000000000E+00  0.1000000000E+01  0.3530110648E+00  0.2594405597E+00  0.3669857328E-18 -0.2841046251E+00  0.6622135680E+15  0.2644972577E+00  0.3633317212E-18 -0.3214779352E+00
  0.3530110648E+00  0.1000000000E+01  0.3530110648E+00  0.1960405351E+00 -0.3239886975E-19 -0.3039163062E+00  0.6622135680E+15  0.2055390712E+00 -0.5170443172E-19 -0.3404616623E+00
  0.2570463033E+00  0.1000000000E+01  0.3530110648E+00  0.1932730494E+00 -0.1325766140E-17 -0.1460850373E+00  0.6622135680E+15  0.1700922095E+00 -0.8619701095E-18 -0.1785357961E+00
  0.1429536967E+00  0.1000000000E+01  0.3530110648E+00  0.7131258486E-01 -0.4945349618E-18 -0.1014273095E+00  0.6622135680E+15  0.7903224256E-01 -0.2497821496E-18 -0.1298682712E+00
  0.4698893521E-01  0.1000000000E+01  0.3530110648E+00 -0.1157626528E-02 -0.4524519189E-18  0.3096823553E-01  0.6622135680E+15  0.4383777304E-01 -0.2533032669E-18  0.8597366593E-02
  0.0000000000E+00  0.1000000000E+01  0.3530110648E+00 -0.1546796219E-01  0.5671165753E-20  0.5229971198E-03  0.6622135680E+15 -0.1581169558E-01  0.4321478074E-20 -0.7979940039E-02
  0.4000000000E+00  0.1000000000E+01  0.4000000000E+00  0.2365621381E+00  0.7344528693E-18 -0.2754238035E+00  0.6622135680E+15  0.2415300745E+00  0.7331719743E-18 -0.3040434550E+00
  0.3530110648E+00  0.1000000000E+01  0.4000000000E+00  0.2305463985E+00 -0.4380465217E-19 -0.2946245472E+00  0.6622135680E+15  0.2379421160E+00  0.9523661241E-20 -0.3206710311E+00
  0.2570463033E+00  0.1000000000E+01  0.4000000000E+00  0.2102138481E+00 -0.2500536511E-17 -0.1628758875E+00  0.6622135680E+15  0.1853017121E+00 -0.2579076202E-17 -0.1839607747E+00
  0.1429536967E+00  0.1000000000E+01  0.4000000000E+00  0.9237411127E-01 -0.9416405783E-18 -0.1494575089E+00  0.6622135680E+15  0.9791066544E-01 -0.1137266648E-17 -0.1678928792E+00
  0.4698893521E-01  0.1000000000E+01  0.4000000000E+00  0.7161882157E-03 -0.9929185028E-18 -0.1364628068E-01  0.6622135680E+15  0.4285477103E-01 -0.9255760373E-18 -0.2971090255E-01
  0.0000000000E+00  0.1000000000E+01  0.4000000000E+00 -0.7573711344E-02  0.1181238713E-19 -0.2307499251E-02  0.6622135680E+15 -0.8086894462E-02  0.1073199090E-19 -0.7784165220E-02
ZONE I=6, J=6, K=1, F=POINT
  0.8000000000E+00  0.1000000000E+01  0.0000000000E+00  0.2863380206E-01 -0.2018924866E-19 -0.1108764743E-01  0.6622135680E+15  0.2718227982E-01 -0.1668684081E-19 -0.1056320617E-01
  0.7530110648E+00  0.1000000000E+01  0.0000000000E+00  0.1016593833E-01  0.3617825379E-18  0.5452348328E-02  0.6622135680E+15  0.9336689547E-02  0.3547064523E-18  0.5738680868E-02
  0.6570463033E+00  0.1000000000E+01  0.0000000000E+00  0.6033102956E-02  0.1023585509E-18 -0.2207894855E-03  0.6622135680E+15  0.6673254151E-02  0.1077386831E-18  0.8689773814E-04
  0.5429536967E+00  0.1000000000E+01  0.0000000000E+00  0.5336335120E-02  0.1439116512E-18  0.5965221783E-02  0.6622135680E+15  0.7996384777E-02  0.2161996624E-18  0.6287442141E-02
  0.4469889352E+00  0.1000000000E+01  0.0000000000E+00  0.7743926458E-03  0.4851951075E-19  0.2166898586E-03  0.6622135680E+15  0.5256187645E-02  0.1917582356E-18  0.3173063980E-03
  0.4000000000E+00  0.1000000000E+01  0.0000000000E+00  0.1826275182E-01  0.3351266159E-19  0.6174277858E-02  0.6622135680E+15  0.2344501542E-01  0.3502898458E-19  0.6078053841E-02
  0.8000000000E+00  0.1000000000E+01  0.4698893521E-01  0.4038526481E+00 -0.2688997528E-16  0.2387811606E-01  0.6622135680E+15  0.4203707799E+00 -0.2710045047E-16 -0.2869908474E-01
  0.7530110648E+00  0.1000000000E+01  0.4698893521E-01  0.6421162847E+00 -0.2961911351E-16 -0.4144231196E-01  0.6622135680E+15  0.6582835824E+00 -0.3047958190E-16 -0.9873990120E-01
  0.6570463033E+00  0.1000000000E+01  0.4698893521E-01  0.3593439995E+00 -0.5527750809E-17 -0.1074499609E-01  0.6622135680E+15  0.3759681224E+00 -0.5428582726E-17 -0.7494507240E-01
  0.5429536967E+00  0.1000000000E+01  0.4698893521E-01  0.3249890976E+00  0.5264159837E-17 -0.6724080935E-03  0.6622135680E+15  0.3412382662E+00  0.5497177814E-17 -0.6858187838E-01
  0.4469889352E+00  0.1000000000E+01  0.4698893521E-01  0.1100698772E+00  0.1921925989E-17  0.8499075948E-02  0.6622135680E+15  0.1258685922E+00  0.1887144155E-17 -0.5417967990E-01
  0.4000000000E+00  0.1000000000E+01  0.4698893521E-01  0.2119512310E+00  0.1991147133E-18 -0.3446843945E-01  0.6622135680E+15  0.2279784636E+00  0.1148320760E-18 -0.9318684829E-01
  0.8000000000E+00  0.1000000000E+01  0.1429536967E+00  0.5591266398E+00 -0.4181708375E-16 -0.2527075257E+00  0.6622135680E+15  0.5844604338E+00 -0.4118632143E-16 -0.3047556540E+00
  0.7530110648E+00  0.1000000000E+01  0.1429536967E+00  0.9555645378E+00 -0.2789040887E-16 -0.1458614464E+00  0.6622135680E+15  0.9759326994E+00 -0.2772373111E-16 -0.1974016564E+00
  0.6570463033E+00  0.1000000000E+01  0.1429536967E+00  0.5620201118E+00 -0.1050789764E-16 -0.2157274675E+00  0.6622135680E+15  0.5823123059E+00 -0.1133155881E-16 -0.2641172952E+00
  0.5429536967E+00  0.1000000000E+01  0.1429536967E+00  0.5161011650E+00  0.9062551286E-17 -0.9624248161E-01  0.6622135680E+15  0.5306034572E+00  0.9437262286E-17 -0.1427488148E+00
  0.4469889352E+00  0.1000000000E+01  0.1429536967E+00  0.1906127589E+00  0.5504987716E-17 -0.1570216562E+00  0.6622135680E+15  0.1970423361E+00  0.5671520218E-17 -0.1972324558E+00
  0.4000000000E+00  0.1000000000E+01  0.1429536967E+00  0.3269962819E+00  0.5911173002E-17 -0.1005545594E+00  0.6622135680E+15  0.3369107515E+00  0.6056154217E-17 -0.1372005010E+00
  0.8000000000E+00  0.1000000000E+01  0.2570463033E+00  0.5687234994E+00  0.2199300471E-17 -0.5005860249E+00  0.6622135680E+15  0.5901518803E+00  0.2220662724E-17 -0.5265081742E+00
  0.7530110648E+00  0.1000000000E+01  0.2570463033E+00  0.6304897609E+00 -0.6529417676E-18 -0.3392173851E+00  0.6622135680E+15  0.6437037641E+00 -0.1051501887E-17 -0.3623284973E+00
  0.6570463033E+00  0.1000000000E+01  0.2570463033E+00  0.4373612163E+00 -0.9888726243E-17 -0.4368203034E+00  0.6622135680E+15  0.4528270769E+00 -0.1027302356E-16 -0.4557381269E+00
  0.5429536967E+00  0.1000000000E+01  0.2570463033E+00  0.3837373182E+00 -0.2152504844E-18 -0.2553710240E+00  0.6622135680E+15  0.3938051755E+00 -0.5650597527E-19 -0.2693239982E+00
  0.4469889352E+00  0.1000000000E+01  0.2570463033E+00  0.2385643902E+00  0.8240779402E-18 -0.3336191166E+00  0.6622135680E+15  0.2385767259E+00  0.6885052187E-18 -0.3440119122E+00
  0.4000000000E+00  0.1000000000E+01  0.2570463033E+00  0.2848439584E+00  0.4664932047E-18 -0.2442761023E+00  0.6622135680E+15  0.2913075368E+00  0.4717823964E-18 -0.2538503520E+00
  0.8000000000E+00  0.1000000000E+01  0.3530110648E+00  0.2579691599E+00  0.1093212573E-16 -0.5969650803E+00  0.6622135680E+15  0.2773726924E+00  0.1091083548E-16 -0.6324120423E+00
  0.7530110648E+00  0.1000000000E+01  0.3530110648E+00  0.3691262800E+00  0.1427885884E-16 -0.4870985013E+00  0.6622135680E+15  0.3834917203E+00  0.1497665441E-16 -0.5244459401E+00
  0.6570463033E+00  0.1000000000E+01  0.3530110648E+00  0.2628771322E+00 -0.4898145431E-17 -0.4983297945E+00  0.6622135680E+15  0.2785396629E+00 -0.4784204299E-17 -0.5411495091E+00
  0.5429536967E+00  0.1000000000E+01  0.3530110648E+00  0.2954307475E+00 -0.9504786175E-17 -0.3134654860E+00  0.6622135680E+15  0.3017600809E+00 -0.9481747199E-17 -0.3560995261E+00
  0.4469889352E+00  0.1000000000E+01  0.3530110648E+00  0.2005726614E+00 -0.4901451655E-18 -0.3539615844E+00  0.6622135680E+15  0.1976196321E+00 -0.1597155783E-18 -0.3927776161E+00
  0.4000000000E+00  0.1000000000E+01  0.3530110648E+00  0.2958112832E+00  0.3342901575E-18 -0.2838820344E+00  0.6622135680E+15  0.3009981696E+00  0.3274045941E-18 -0.3212510821E+00
  0.8000000000E+00  0.1000000000E+01  0.4000000000E+00  0.2122432155E+00 -0.3510389534E-17 -0.6396827639E+00  0.6622135680E+15  0.2321162192E+00 -0.3520827910E-17 -0.6750864825E+00
  0.7530110648E+00  0.1000000000E+01  0.4000000000E+00  0.2083793504E+00  0.7790995131E-20 -0.4869099746E+00  0.6622135680E+15  0.2245701851E+00  0.1939627829E-18 -0.5223718239E+00
  0.6570463033E+00  0.1000000000E+01  0.4000000000E+00  0.1792560848E+00 -0.2765036489E-17 -0.5043699393E+00  0.6622135680E+15  0.1963033074E+00 -0.2850049318E-17 -0.5393451756E+00
  0.5429536967E+00  0.1000000000E+01  0.4000000000E+00  0.2299546755E+00  0.1540770312E-17 -0.3562634119E+00  0.6622135680E+15  0.2350224929E+00  0.1334741057E-17 -0.3900911780E+00
  0.4469889352E+00  0.1000000000E+01  0.4000000000E+00  0.2349554167E+00  0.1616942855E-17 -0.3548391884E+00  0.6622135680E+15  0.2297256757E+00  0.1612020203E-17 -0.3850430347E+00
  0.4000000000E+00  0.1000000000E+01  0.4000000000E+00  0.2516824737E+00  0.7562557740E-18 -0.2747415753E+00  0.6622135680E+15  0.2564232671E+00  0.7554464943E-18 -0.3033976080E+00
ZONE I=6, J=6, K=1, F=POINT
  0.1200000000E+01  0.1000000000E+01  0.0000000000E+00 -0.2563880186E-01  0.1214109142E-18  0.3712018817E-01  0.6622135680E+15 -0.3106864909E-01  0.1265996125E-18  0.3708882218E-01
  0.1153011065E+01  0.1000000000E+01  0.0000000000E+00  0.5051602522E-02  0.4189549898E-18 -0.8365234024E-02  0.6622135680E+15 -0.7720454802E-04  0.2112460970E-18 -0.8283144563E-02
  0.1057046303E+01  0.1000000000E+01  0.0000000000E+00  0.1291398232E-01  0.3595176127E-18  0.6353779029E-02  0.6622135680E+15  0.8522448620E-02  0.2454180082E-18  0.6516978816E-02
  0.9429536967E+00  0.1000000000E+01  0.0000000000E+00  0.8040015721E-02  0.8062681217E-19 -0.7514603003E-02  0.6622135680E+15  0.4853251091E-02  0.8871900772E-19 -0.7330653384E-02
  0.8469889352E+00  0.1000000000E+01  0.0000000000E+00  0.1300685758E-01  0.5493094585E-19  0.5258724582E-02  0.6622135680E+15  0.1097817053E-01  0.5816831855E-19  0.5503667642E-02
  0.8000000000E+00  0.1000000000E+01  0.0000000000E+00 -0.2127086309E-01 -0.3016624387E-19 -0.1022110202E-01  0.6622135680E+15 -0.2265397363E-01 -0.2666130099E-19 -0.9727534570E-02
  0.1200000000E+01  0.1000000000E+01  0.4698893521E-01  0.1741384386E+01 -0.4367233044E-16 -0.1739261294E+00  0.6622135680E+15  0.1751374153E+01 -0.4408137704E-16 -0.1651413741E+00
  0.1153011065E+01  0.1000000000E+01  0.4698893521E-01  0.1053189293E+01 -0.1627609795E-16 -0.1692363919E-01  0.6622135680E+15  0.1064737741E+01 -0.1665856397E-16 -0.1526899902E-01
  0.1057046303E+01  0.1000000000E+01  0.4698893521E-01  0.1157673420E+01  0.2651755957E-17 -0.4689395353E-01  0.6622135680E+15  0.1171552799E+01  0.2770654797E-17 -0.6244510865E-01
  0.9429536967E+00  0.1000000000E+01  0.4698893521E-01  0.7234621651E+00 -0.1363186152E-16 -0.3764166527E-01  0.6622135680E+15  0.7387926784E+00 -0.1406707377E-16 -0.7168454249E-01
  0.8469889352E+00  0.1000000000E+01  0.4698893521E-01  0.7666020366E+00 -0.3323423755E-16 -0.5498672245E-01  0.6622135680E+15  0.7827490103E+00 -0.3392181276E-16 -0.1018008753E+00
  0.8000000000E+00  0.1000000000E+01  0.4698893521E-01  0.3305754556E+00 -0.2606945684E-16  0.2606454760E-01  0.6622135680E+15  0.3474521985E+00 -0.2629722011E-16 -0.2655751611E-01
  0.1200000000E+01  0.1000000000E+01  0.1429536967E+00  0.2952091014E+01 -0.5570847158E-16 -0.2004334294E+00  0.6622135680E+15  0.2975581834E+01 -0.5623004237E-16 -0.2309647717E+00
  0.1153011065E+01  0.1000000000E+01  0.1429536967E+00  0.1671510459E+01 -0.4214324144E-16 -0.4145503417E+00  0.6622135680E+15  0.1698694919E+01 -0.4066453962E-16 -0.4473950951E+00
  0.1057046303E+01  0.1000000000E+01  0.1429536967E+00  0.1811979578E+01 -0.1259102403E-16 -0.1959844323E+00  0.6622135680E+15  0.1841111442E+01 -0.1273021239E-16 -0.2348486143E+00
  0.9429536967E+00  0.1000000000E+01  0.1429536967E+00  0.1061471085E+01 -0.1985589601E-16 -0.3874973886E+00  0.6622135680E+15  0.1090011148E+01 -0.1992066089E-16 -0.4322837093E+00
  0.8469889352E+00  0.1000000000E+01  0.1429536967E+00  0.1131399501E+01 -0.3869943816E-16 -0.1845717323E+00  0.6622135680E+15  0.1159364953E+01 -0.3911945403E-16 -0.2351582802E+00
  0.8000000000E+00  0.1000000000E+01  0.1429536967E+00  0.4652533567E+00 -0.4429670899E-16 -0.2543560206E+00  0.6622135680E+15  0.4918501875E+00 -0.4365950609E-16 -0.3064009626E+00
  0.1200000000E+01  0.1000000000E+01  0.2570463033E+00  0.1674422694E+01 -0.2962893579E-16 -0.5865191214E+00  0.6622135680E+15  0.1692143073E+01 -0.2961184043E-16 -0.6386729236E+00
  0.1153011065E+01  0.1000000000E+01  0.2570463033E+00  0.1399643426E+01 -0.6730370236E-16 -0.8556513496E+00  0.6622135680E+15  0.1425669871E+01 -0.7043629080E-16 -0.9058864551E+00
  0.1057046303E+01  0.1000000000E+01  0.2570463033E+00  0.1181142043E+01 -0.2906248293E-16 -0.5002381748E+00  0.6622135680E+15  0.1207708834E+01 -0.2905181082E-16 -0.5455771822E+00
  0.9429536967E+00  0.1000000000E+01  0.2570463033E+00  0.8342573216E+00 -0.3022483821E-16 -0.7443416253E+00  0.6622135680E+15  0.8600509796E+00 -0.3148812424E-16 -0.7817758589E+00
  0.8469889352E+00  0.1000000000E+01  0.2570463033E+00  0.7613474941E+00  0.1749166732E-17 -0.4175133767E+00  0.6622135680E+15  0.7878835798E+00  0.2161595121E-17 -0.4466925073E+00
  0.8000000000E+00  0.1000000000E+01  0.2570463033E+00  0.5223203990E+00  0.1948265544E-17 -0.5026119990E+00  0.6622135680E+15  0.5440398728E+00  0.1958815567E-17 -0.5284619916E+00
  0.1200000000E+01  0.1000000000E+01  0.3530110648E+00  0.1350862968E+01 -0.9108025854E-17 -0.1097545766E+01  0.6622135680E+15  0.1368009226E+01 -0.9086348683E-17 -0.1137562893E+01
  0.1153011065E+01  0.1000000000E+01  0.3530110648E+00  0.9203465214E+00 -0.2099370004E-16 -0.1066922701E+01  0.6622135680E+15  0.9449093089E+00 -0.2130125275E-16 -0.1107524257E+01
  0.1057046303E+01  0.1000000000E+01  0.3530110648E+00  0.7679044159E+00 -0.1399290978E-16 -0.7921192368E+00  0.6622135680E+15  0.7926592159E+00 -0.1347862755E-16 -0.8336961843E+00
  0.9429536967E+00  0.1000000000E+01  0.3530110648E+00  0.4368908952E+00 -0.1868409327E-16 -0.8451937906E+00  0.6622135680E+15  0.4566202394E+00 -0.1894034500E-16 -0.8866229450E+00
  0.8469889352E+00  0.1000000000E+01  0.3530110648E+00  0.4619437442E+00  0.6552892370E-17 -0.6011689946E+00  0.6622135680E+15  0.4822032515E+00  0.7382630702E-17 -0.6377569696E+00
  0.8000000000E+00  0.1000000000E+01  0.3530110648E+00  0.2074231557E+00  0.1096054597E-16 -0.5971359663E+00  0.6622135680E+15  0.2276265872E+00  0.1093485490E-16 -0.6326557493E+00
  0.1200000000E+01  0.1000000000E+01  0.4000000000E+00  0.9462704369E+00 -0.1180763035E-16 -0.1116416583E+01  0.6622135680E+15  0.9639102848E+00 -0.1180725348E-16 -0.1168262458E+01
  0.1153011065E+01  0.1000000000E+01  0.4000000000E+00  0.8603779223E+00 -0.8221816912E-17 -0.1269483105E+01  0.6622135680E+15  0.8842289399E+00 -0.7665025307E-17 -0.1319707120E+01
  0.1057046303E+01  0.1000000000E+01  0.4000000000E+00  0.5569730268E+00 -0.7811744431E-17 -0.9028619379E+00  0.6622135680E+15  0.5811538175E+00 -0.7808490253E-17 -0.9467738615E+00
  0.9429536967E+00  0.1000000000E+01  0.4000000000E+00  0.3377398314E+00 -0.2024053319E-16 -0.9342962563E+00  0.6622135680E+15  0.3565594897E+00 -0.2085045045E-16 -0.9736166709E+00
  0.8469889352E+00  0.1000000000E+01  0.4000000000E+00  0.2590493621E+00 -0.9945319832E-17 -0.6194580370E+00  0.6622135680E+15  0.2777516926E+00 -0.9712675421E-17 -0.6565465291E+00
  0.8000000000E+00  0.1000000000E+01  0.4000000000E+00  0.2028561843E+00 -0.3504522449E-17 -0.6422791259E+00  0.6622135680E+15  0.2227042541E+00 -0.3516911287E-17 -0.6776507438E+00
ZONE I=6, J=6, K=1, F=POINT
  0.1600000000E+01  0.1000000000E+01  0.0000000000E+00  0.1393492750E+00 -0.8167124734E-18 -0.7116161446E-01  0.6622135680E+15  0.1341442830E+00 -0.8983679237E-18 -0.7114421187E-01
  0.1553011065E+01  0.1000000000E+01  0.0000000000E+00  0.1425417291E-01 -0.1759241419E-17  0.4592350232E-01  0.6622135680E+15  0.8900572484E-02 -0.1522514117E-17  0.4568854026E-01
  0.1457046303E+01  0.1000000000E+01  0.0000000000E+00 -0.2207505859E-02 -0.1302063471E-18 -0.2271308946E-02  0.6622135680E+15 -0.7905436545E-02  0.1157974183E-20 -0.2309972202E-02
  0.1342953697E+01  0.1000000000E+01  0.0000000000E+00  0.1299776188E-01  0.9425470119E-18  0.3017657141E-01  0.6622135680E+15  0.7311655145E-02  0.6318041548E-18  0.3016478064E-01
  0.1246988935E+01  0.1000000000E+01  0.0000000000E+00  0.5906370986E-03  0.9403282183E-19 -0.6839753917E-02  0.6622135680E+15 -0.4665810875E-02  0.5716995101E-19 -0.6816357724E-02
  0.1200000000E+01  0.1000000000E+01  0.0000000000E+00  0.7230568715E-01  0.1310343342E-18  0.3650700451E-01  0.6622135680E+15  0.6697156748E-01  0.1360944234E-18  0.3648426327E-01
  0.1600000000E+01  0.1000000000E+01  0.4698893521E-01  0.2152728580E+01 -0.6347874092E-16  0.2112599848E+00  0.6622135680E+15  0.2145188739E+01 -0.6338112738E-16  0.2473767434E+00
  0.1553011065E+01  0.1000000000E+01  0.4698893521E-01  0.2834556941E+01 -0.1308384498E-16 -0.3062130895E+00  0.6622135680E+15  0.2831707433E+01 -0.1332260081E-16 -0.2720678283E+00
  0.1457046303E+01  0.1000000000E+01  0.4698893521E-01  0.1813291337E+01 -0.6243503260E-17 -0.1202329948E+00  0.6622135680E+15  0.1813420574E+01 -0.6154397984E-17 -0.9320913306E-01
  0.1342953697E+01  0.1000000000E+01  0.4698893521E-01  0.1867379651E+01  0.2760510604E-16 -0.8885325449E-01  0.6622135680E+15  0.1870190764E+01  0.2766189286E-16 -0.6931235985E-01
  0.1246988935E+01  0.1000000000E+01  0.4698893521E-01  0.1291425808E+01 -0.4344129041E-17 -0.1123083733E-01  0.6622135680E+15  0.1297971493E+01 -0.4133703130E-17  0.2324922141E-02
  0.1200000000E+01  0.1000000000E+01  0.4698893521E-01  0.1860412010E+01 -0.4877630967E-16 -0.1798043357E+00  0.6622135680E+15  0.1868441425E+01 -0.4915862307E-16 -0.1707127085E+00
  0.1600000000E+01  0.1000000000E+01  0.1429536967E+00  0.2359031428E+01 -0.2241490006E-15 -0.1629359902E+01  0.6622135680E+15  0.2346654625E+01 -0.2247191757E-15 -0.1667132511E+01
  0.1553011065E+01  0.1000000000E+01  0.1429536967E+00  0.4409239322E+01 -0.1379584248E-15 -0.7353128207E+00  0.6622135680E+15  0.4410523572E+01 -0.1378232417E-15 -0.7708214619E+00
  0.1457046303E+01  0.1000000000E+01  0.1429536967E+00  0.2705100586E+01  0.4489656881E-16 -0.8081547813E+00  0.6622135680E+15  0.2712489468E+01  0.4497987307E-16 -0.8396261288E+00
  0.1342953697E+01  0.1000000000E+01  0.1429536967E+00  0.3098030297E+01  0.1000873063E-15 -0.7090282206E-01  0.6622135680E+15  0.3106541822E+01  0.1003631057E-15 -0.1011603167E+00
  0.1246988935E+01  0.1000000000E+01  0.1429536967E+00  0.2080041291E+01  0.1425322246E-16 -0.4121489592E+00  0.6622135680E+15  0.2093574016E+01  0.1372310429E-16 -0.4418034890E+00
  0.1200000000E+01  0.1000000000E+01  0.1429536967E+00  0.3129125548E+01 -0.6018048372E-16 -0.1956763967E+00  0.6622135680E+15  0.3146500387E+01 -0.6058657464E-16 -0.2265745051E+00
  0.1600000000E+01  0.1000000000E+01  0.2570463033E+00  0.4615470680E+01  0.1695558358E-16 -0.2845039354E+01  0.6622135680E+15  0.4614139269E+01  0.1698361653E-16 -0.2918949679E+01
  0.1553011065E+01  0.1000000000E+01  0.2570463033E+00  0.3899317448E+01  0.3080796967E-16 -0.1615523715E+01  0.6622135680E+15  0.3893478713E+01  0.2985363960E-16 -0.1685635607E+01
  0.1457046303E+01  0.1000000000E+01  0.2570463033E+00  0.3168463300E+01  0.1399996504E-15 -0.1601323200E+01  0.6622135680E+15  0.3170507647E+01  0.1399071754E-15 -0.1663991373E+01
  0.1342953697E+01  0.1000000000E+01  0.2570463033E+00  0.2394605545E+01  0.1164327680E-15 -0.4505793810E+00  0.6622135680E+15  0.2401185408E+01  0.1167016750E-15 -0.5084959395E+00
  0.1246988935E+01  0.1000000000E+01  0.2570463033E+00  0.1785021742E+01  0.2594819571E-16 -0.8999760806E+00  0.6622135680E+15  0.1792862520E+01  0.2551800433E-16 -0.9544471266E+00
  0.1200000000E+01  0.1000000000E+01  0.2570463033E+00  0.1726114998E+01 -0.3012770858E-16 -0.5803429138E+00  0.6622135680E+15  0.1743769027E+01 -0.3013371101E-16 -0.6333564335E+00
  0.1600000000E+01  0.1000000000E+01  0.3530110648E+00  0.2720806335E+01  0.3568925725E-16 -0.3006418874E+01  0.6622135680E+15  0.2722106520E+01  0.3579949382E-16 -0.3030011800E+01
  0.1553011065E+01  0.1000000000E+01  0.3530110648E+00  0.3064155586E+01  0.4983241467E-16 -0.2635822636E+01  0.6622135680E+15  0.3057286100E+01  0.4984164768E-16 -0.2662776316E+01
  0.1457046303E+01  0.1000000000E+01  0.3530110648E+00  0.2390510955E+01  0.9609729694E-16 -0.2110585834E+01  0.6622135680E+15  0.2391342829E+01  0.9635873897E-16 -0.2140851919E+01
  0.1342953697E+01  0.1000000000E+01  0.3530110648E+00  0.1958893114E+01  0.9069824742E-16 -0.1263949245E+01  0.6622135680E+15  0.1966019842E+01  0.9118351092E-16 -0.1297398792E+01
  0.1246988935E+01  0.1000000000E+01  0.3530110648E+00  0.1228082368E+01  0.1818100562E-16 -0.1209455915E+01  0.6622135680E+15  0.1234747866E+01  0.1844863902E-16 -0.1247324796E+01
  0.1200000000E+01  0.1000000000E+01  0.3530110648E+00  0.1431393700E+01 -0.9131871577E-17 -0.1098305695E+01  0.6622135680E+15  0.1447157661E+01 -0.9123534607E-17 -0.1138050047E+01
  0.1600000000E+01  0.1000000000E+01  0.4000000000E+00  0.3022075507E+01  0.1056193605E-16 -0.3709539611E+01  0.6622135680E+15  0.3025341380E+01  0.1059137966E-16 -0.3755936653E+01
  0.1553011065E+01  0.1000000000E+01  0.4000000000E+00  0.2467357307E+01  0.3912315113E-16 -0.2515003329E+01  0.6622135680E+15  0.2462423742E+01  0.3945097149E-16 -0.2561361147E+01
  0.1457046303E+01  0.1000000000E+01  0.4000000000E+00  0.2256143416E+01  0.5134175509E-16 -0.2350376482E+01  0.6622135680E+15  0.2257515388E+01  0.5118619422E-16 -0.2395675002E+01
  0.1342953697E+01  0.1000000000E+01  0.4000000000E+00  0.1615363152E+01  0.7858075357E-16 -0.1338974498E+01  0.6622135680E+15  0.1624587176E+01  0.7857913700E-16 -0.1385391016E+01
  0.1246988935E+01  0.1000000000E+01  0.4000000000E+00  0.1216291852E+01  0.8138668767E-17 -0.1459282137E+01  0.6622135680E+15  0.1224901635E+01  0.8326451555E-17 -0.1509624819E+01
  0.1200000000E+01  0.1000000000E+01  0.4000000000E+00  0.9286899899E+00 -0.1157184962E-16 -0.1108165927E+01  0.6622135680E+15  0.9470150381E+00 -0.1157690322E-16 -0.1160614874E+01
ZONE I=6, J=6, K=1, F=POINT
  0.2000000000E+01  0.1000000000E+01  0.0000000000E+00  0.2391183944E+01  0.3960938818E-19  0.2122441147E+02  0.6622135680E+15  0.2417842558E+01  0.7685225822E-19  0.2214536377E+02
  0.1953011065E+01  0.1000000000E+01  0.0000000000E+00  0.1290058317E+01 -0.3555152600E-16 -0.1428909349E+00  0.6622135680E+15  0.1292172066E+01 -0.3483818378E-16 -0.1575752726E+00
  0.1857046303E+01  0.1000000000E+01  0.0000000000E+00 -0.3093766041E+00 -0.1915524434E-16  0.1599864952E+00  0.6622135680E+15 -0.3143737405E+00 -0.2000221239E-16  0.1557154229E+00
  0.1742953697E+01  0.1000000000E+01  0.0000000000E+00  0.1326100677E+00  0.3702310081E-18 -0.3906031227E-01  0.6622135680E+15  0.1289131424E+00  0.3268549278E-18 -0.3862909324E-01
  0.1646988935E+01  0.1000000000E+01  0.0000000000E+00 -0.1249963749E+00  0.7428262192E-18  0.6095540629E-01  0.6622135680E+15 -0.1294830249E+00  0.7555922136E-18  0.5997015872E-01
  0.1600000000E+01  0.1000000000E+01  0.0000000000E+00  0.7935645758E-01 -0.9049477753E-18 -0.8221060788E-01  0.6622135680E+15  0.7413440998E-01 -0.9873205187E-18 -0.8084704189E-01
  0.2000000000E+01  0.1000000000E+01  0.4698893521E-01 -0.3658684618E-01  0.9172869040E-18  0.4847679148E+02  0.6622135680E+15 -0.8155122224E-01  0.7644999992E-18  0.4865025235E+02
  0.1953011065E+01  0.1000000000E+01  0.4698893521E-01  0.1089955285E+02  0.1757761113E-15  0.1429993833E+01  0.6622135680E+15  0.1086581012E+02  0.1745904035E-15  0.1434003159E+01
  0.1857046303E+01  0.1000000000E+01  0.4698893521E-01  0.1095694879E+02  0.3847558889E-15 -0.2086197626E+01  0.6622135680E+15  0.1093962697E+02  0.3831975205E-15 -0.2074169396E+01
  0.1742953697E+01  0.1000000000E+01  0.4698893521E-01  0.4686498027E+01  0.2140471325E-16 -0.6112922825E+00  0.6622135680E+15  0.4679300089E+01  0.2179149291E-16 -0.5884874133E+00
  0.1646988935E+01  0.1000000000E+01  0.4698893521E-01  0.3745123466E+01 -0.1093898774E-15 -0.6317662669E+00  0.6622135680E+15  0.3732016972E+01 -0.1088677902E-15 -0.5966603729E+00
  0.1600000000E+01  0.1000000000E+01  0.4698893521E-01  0.1952332088E+01 -0.5955482162E-16  0.1979910297E+00  0.6622135680E+15  0.1953436478E+01 -0.5924915308E-16  0.2289980148E+00
  0.2000000000E+01  0.1000000000E+01  0.1429536967E+00 -0.2871561500E+00  0.1110517450E-17  0.5049302350E+02  0.6622135680E+15 -0.2701927974E+00  0.9083532568E-18  0.5043010434E+02
  0.1953011065E+01  0.1000000000E+01  0.1429536967E+00  0.2246142679E+01 -0.3371175385E-15  0.1523263439E+02  0.6622135680E+15  0.2213827146E+01 -0.3400210264E-15  0.1524431652E+02
  0.1857046303E+01  0.1000000000E+01  0.1429536967E+00  0.9744186043E+01 -0.2679862788E-15 -0.5285548365E+01  0.6622135680E+15  0.9718582951E+01 -0.2659506077E-15 -0.5317187255E+01
  0.1742953697E+01  0.1000000000E+01  0.1429536967E+00  0.5635446587E+01  0.1278016574E-15 -0.3910994997E+01  0.6622135680E+15  0.5624206830E+01  0.1252258585E-15 -0.3955384940E+01
  0.1646988935E+01  0.1000000000E+01  0.1429536967E+00  0.5337790199E+01 -0.6531327422E-16 -0.1791378020E+01  0.6622135680E+15  0.5327107464E+01 -0.6518019860E-16 -0.1827908603E+01
  0.1600000000E+01  0.1000000000E+01  0.1429536967E+00  0.1980447992E+01 -0.2416559923E-15 -0.1621727653E+01  0.6622135680E+15  0.1991875661E+01 -0.2427543595E-15 -0.1666798340E+01
  0.2000000000E+01  0.1000000000E+01  0.2570463033E+00  0.8428531644E-02  0.7519240698E-18  0.4986624837E+02  0.6622135680E+15  0.7385912195E-02  0.7319177474E-18  0.4987022520E+02