TITLE = "Generated from ../MESH/Convergence_0000000000.hmesh and Convergence_0000001200.hsol"
VARIABLES = "x","y","z","veloT_x","veloT_y","veloT_z","slr_4","velo_x","velo_y","velo_z"
ZONE I=6, J=6, K=1, F=POINT
  0.4000000000E+00  0.1000000000E+01  0.0000000000E+00 -0.1180575762E-01  0.2996371338E-19  0.6881140422E-02  0.6096702246E+15 -0.1280218618E-01  0.2983682705E-19  0.6957885801E-02
  0.3530110648E+00  0.1000000000E+01  0.0000000000E+00 -0.1554209853E-02  0.1165892086E-19 -0.7152089573E-03  0.6096702246E+15 -0.2714766902E-02  0.9760237347E-20 -0.6603405120E-03
  0.2570463033E+00  0.1000000000E+01  0.0000000000E+00 -0.2858034549E-03  0.1762342459E-20  0.2077644722E-02  0.6096702246E+15 -0.1303478724E-02  0.1223641852E-20  0.2097238648E-02
  0.1429536967E+00  0.1000000000E+01  0.0000000000E+00 -0.1373357130E-02  0.2805852764E-21 -0.1164104678E-02  0.6096702246E+15 -0.2279526180E-02  0.1243932776E-21 -0.1199932672E-02
  0.4698893521E-01  0.1000000000E+01  0.0000000000E+00  0.1318693349E-02 -0.1669447905E-20  0.1957719008E-02  0.6096702246E+15  0.6257778732E-03 -0.2018375132E-20  0.2076513608E-02
  0.0000000000E+00  0.1000000000E+01  0.0000000000E+00 -0.7688454744E-02  0.1110022890E-22  0.2174275597E-02  0.6096702246E+15 -0.7768027084E-02  0.1071238193E-22  0.2288469495E-02
  0.4000000000E+00  0.1000000000E+01  0.4698893521E-01  0.2446377194E+00  0.2443706379E-17 -0.4683919981E-01  0.6096702246E+15  0.2421306340E+00  0.2458581564E-17 -0.2721213023E-01
  0.3530110648E+00  0.1000000000E+01  0.4698893521E-01  0.1026208154E+00  0.2064420752E-17 -0.7172023086E-02  0.6096702246E+15  0.9911052630E-01  0.2080308592E-17  0.1130647066E-01
  0.2570463033E+00  0.1000000000E+01  0.4698893521E-01  0.8183113415E-01  0.5506282333E-18 -0.1320296083E-01  0.6096702246E+15  0.7956724350E-01  0.5734427526E-18  0.2248912808E-04
  0.1429536967E+00  0.1000000000E+01  0.4698893521E-01  0.1360300861E-02  0.2740661922E-19 -0.6710457493E-02  0.6096702246E+15 -0.1333038237E-02  0.2409525236E-19 -0.3300036269E-03
  0.4698893521E-01  0.1000000000E+01  0.4698893521E-01 -0.4050514283E-04 -0.1013979349E-19 -0.9509990075E-02  0.6096702246E+15 -0.3117256822E-02 -0.1500788057E-19 -0.5851249850E-02
  0.0000000000E+00  0.1000000000E+01  0.4698893521E-01 -0.1850035361E-01  0.9324310457E-21  0.2914567891E-02  0.6096702246E+15 -0.1864605607E-01  0.8999792005E-21  0.3624703417E-02
  0.4000000000E+00  0.1000000000E+01  0.1429536967E+00  0.4859838535E+00  0.8270575509E-17 -0.1290348038E+00  0.6096702246E+15  0.4865821192E+00  0.8275491647E-17 -0.9404187233E-01
  0.3530110648E+00  0.1000000000E+01  0.1429536967E+00  0.2361429565E+00  0.4478798179E-17 -0.1580582525E+00  0.6096702246E+15  0.2391115664E+00  0.4267414328E-17 -0.1262555426E+00
  0.2570463033E+00  0.1000000000E+01  0.1429536967E+00  0.1707385385E+00  0.1015309386E-17 -0.8270826316E-01  0.6096702246E+15  0.1775824845E+00  0.1031698547E-17 -0.6057878345E-01
  0.1429536967E+00  0.1000000000E+01  0.1429536967E+00  0.1702842847E-01  0.1177996135E-18 -0.9476697166E-01  0.6096702246E+15  0.2105814985E-01  0.1247588129E-18 -0.8375833544E-01
  0.4698893521E-01  0.1000000000E+01  0.1429536967E+00 -0.6877179756E-02 -0.6686850314E-20 -0.6868086774E-02  0.6096702246E+15 -0.7276062658E-02 -0.3065663593E-19 -0.1894144774E-02
  0.0000000000E+00  0.1000000000E+01  0.1429536967E+00 -0.2169306078E-01  0.1665570016E-21 -0.5879990671E-03  0.6096702246E+15 -0.2160524703E-01 -0.3241644675E-22  0.3344977481E-03
  0.4000000000E+00  0.1000000000E+01  0.2570463033E+00  0.4651740127E+00  0.5713051600E-18 -0.3223954892E+00  0.6096702246E+15  0.4711858671E+00  0.5782947526E-18 -0.2956173678E+00
  0.3530110648E+00  0.1000000000E+01  0.2570463033E+00  0.3250679076E+00 -0.5205476137E-18 -0.3561300423E+00  0.6096702246E+15  0.3364038898E+00 -0.1661440776E-18 -0.3315104040E+00
  0.2570463033E+00  0.1000000000E+01  0.2570463033E+00  0.2139729159E+00 -0.2526789948E-18 -0.2141111259E+00  0.6096702246E+15  0.2313105207E+00 -0.2567933379E-18 -0.1951415421E+00
  0.1429536967E+00  0.1000000000E+01  0.2570463033E+00  0.6259379950E-01  0.2130550158E-18 -0.2193436845E+00  0.6096702246E+15  0.7590538780E-01  0.2092619906E-18 -0.2092081106E+00
  0.4698893521E-01  0.1000000000E+01  0.2570463033E+00  0.7317521914E-02  0.4937802115E-18 -0.3374323723E-01  0.6096702246E+15  0.1122160422E-01  0.5555076961E-18 -0.2900628597E-01
  0.0000000000E+00  0.1000000000E+01  0.2570463033E+00 -0.1453890039E-01 -0.3707703877E-20 -0.6931497296E-03  0.6096702246E+15 -0.1452081599E-01 -0.3525431455E-20  0.3985989004E-03
  0.4000000000E+00  0.1000000000E+01  0.3530110648E+00  0.4418904163E+00 -0.2751905208E-18 -0.4566277021E+00  0.6096702246E+15  0.4516769521E+00 -0.2808840475E-18 -0.4385198172E+00
  0.3530110648E+00  0.1000000000E+01  0.3530110648E+00  0.3136339962E+00 -0.5482052492E-18 -0.4699080594E+00  0.6096702246E+15  0.3272613740E+00 -0.5433438746E-18 -0.4527387026E+00
  0.2570463033E+00  0.1000000000E+01  0.3530110648E+00  0.2242302832E+00 -0.1197484651E-17 -0.3340173428E+00  0.6096702246E+15  0.2466516953E+00 -0.1410282418E-17 -0.3193188704E+00
  0.1429536967E+00  0.1000000000E+01  0.3530110648E+00  0.7712172447E-01  0.9394111661E-19 -0.3192726081E+00  0.6096702246E+15  0.9662536242E-01  0.2022276191E-19 -0.3105993273E+00
  0.4698893521E-01  0.1000000000E+01  0.3530110648E+00  0.1385325993E-01 -0.2801748296E-19 -0.8813070581E-01  0.6096702246E+15  0.2008076507E-01 -0.7316349160E-19 -0.8305235446E-01
  0.0000000000E+00  0.1000000000E+01  0.3530110648E+00 -0.1459743234E-01  0.4515810096E-20 -0.9371278516E-03  0.6096702246E+15 -0.1447105769E-01  0.5075781918E-20  0.3448199113E-03
  0.4000000000E+00  0.1000000000E+01  0.4000000000E+00  0.4073191060E+00  0.1102605404E-17 -0.5135638948E+00  0.6096702246E+15  0.4199801301E+00  0.1103126919E-17 -0.4935529172E+00
  0.3530110648E+00  0.1000000000E+01  0.4000000000E+00  0.3335528420E+00  0.4824895481E-18 -0.5277422021E+00  0.6096702246E+15  0.3485609821E+00  0.4439247316E-18 -0.5107266004E+00
  0.2570463033E+00  0.1000000000E+01  0.4000000000E+00  0.2272723936E+00 -0.1853167227E-17 -0.3987011563E+00  0.6096702246E+15  0.2516511097E+00 -0.1789529569E-17 -0.3863224807E+00
  0.1429536967E+00  0.1000000000E+01  0.4000000000E+00  0.9111948103E-01 -0.3166597154E-18 -0.3793438993E+00  0.6096702246E+15  0.1128268559E+00 -0.2416619488E-18 -0.3713100433E+00
  0.4698893521E-01  0.1000000000E+01  0.4000000000E+00  0.1148427524E-01 -0.2889116494E-18 -0.1155133530E+00  0.6096702246E+15  0.1871913619E-01 -0.3064329094E-18 -0.1105645243E+00
  0.0000000000E+00  0.1000000000E+01  0.4000000000E+00 -0.7836743026E-02  0.8122980525E-20 -0.2325045374E-02  0.6096702246E+15 -0.7193266398E-02  0.8292351291E-20 -0.1252100816E-02
ZONE I=6, J=6, K=1, F=POINT
  0.8000000000E+00  0.1000000000E+01  0.0000000000E+00  0.1798640079E-01 -0.6665069354E-19 -0.1143816168E-01  0.6096702246E+15  0.1726140099E-01 -0.7029049845E-19 -0.1154301591E-01
  0.7530110648E+00  0.1000000000E+01  0.0000000000E+00  0.2904946094E-02  0.1294806637E-18  0.5781663803E-02  0.6096702246E+15  0.1456838428E-02  0.9327370109E-19  0.5710841501E-02
  0.6570463033E+00  0.1000000000E+01  0.0000000000E+00  0.4289174954E-03  0.3051438807E-19  0.2192915936E-04  0.6096702246E+15 -0.1073954064E-02  0.9443368519E-20 -0.2100350127E-04
  0.5429536967E+00  0.1000000000E+01  0.0000000000E+00  0.1556881846E-02  0.4667186663E-19  0.6686004168E-02  0.6096702246E+15  0.4224683416E-03  0.1426714388E-19  0.6663374439E-02
  0.4469889352E+00  0.1000000000E+01  0.0000000000E+00 -0.1052010549E-02 -0.5691754938E-20  0.3103187263E-03  0.6096702246E+15 -0.2268713576E-02 -0.4553575183E-19  0.3137442966E-03
  0.4000000000E+00  0.1000000000E+01  0.0000000000E+00  0.1525318357E-01  0.3363785957E-19  0.6594591260E-02  0.6096702246E+15  0.1415728713E-01  0.3362690256E-19  0.6651498367E-02
  0.8000000000E+00  0.1000000000E+01  0.4698893521E-01  0.3353200324E+00 -0.2703932232E-16  0.1581000788E-01  0.6096702246E+15  0.3319255316E+00 -0.2699512000E-16  0.3140486325E-01
  0.7530110648E+00  0.1000000000E+01  0.4698893521E-01  0.5392620774E+00 -0.2724845443E-16 -0.4819522995E-01  0.6096702246E+15  0.5350822450E+00 -0.2703207535E-16 -0.2973047435E-01
  0.6570463033E+00  0.1000000000E+01  0.4698893521E-01  0.3161143372E+00 -0.5841159510E-17 -0.2293640194E-01  0.6096702246E+15  0.3131518876E+00 -0.5846219822E-17 -0.1146718749E-02
  0.5429536967E+00  0.1000000000E+01  0.4698893521E-01  0.3294210406E+00  0.4568156573E-17 -0.1471195695E-01  0.6096702246E+15  0.3278133148E+00  0.4553705319E-17  0.6601315204E-02
  0.4469889352E+00  0.1000000000E+01  0.4698893521E-01  0.1866014870E+00  0.3576460052E-17 -0.5023847317E-02  0.6096702246E+15  0.1846946915E+00  0.3570744489E-17  0.1556686613E-01
  0.4000000000E+00  0.1000000000E+01  0.4698893521E-01  0.2872529731E+00  0.2199142952E-17 -0.4760060606E-01  0.6096702246E+15  0.2850269256E+00  0.2212494556E-17 -0.2796042535E-01
  0.8000000000E+00  0.1000000000E+01  0.1429536967E+00  0.7967649587E+00 -0.5486747297E-16 -0.3064502785E+00  0.6096702246E+15  0.7874526073E+00 -0.5512087831E-16 -0.2654746633E+00
  0.7530110648E+00  0.1000000000E+01  0.1429536967E+00  0.1136749733E+01 -0.3651901110E-16 -0.1865986977E+00  0.6096702246E+15  0.1129241691E+01 -0.3674937857E-16 -0.1444554417E+00
  0.6570463033E+00  0.1000000000E+01  0.1429536967E+00  0.7421233022E+00 -0.8044892394E-17 -0.2153473886E+00  0.6096702246E+15  0.7399093767E+00 -0.7924440860E-17 -0.1748683659E+00
  0.5429536967E+00  0.1000000000E+01  0.1429536967E+00  0.6976074171E+00  0.8997615882E-17 -0.8534604458E-01  0.6096702246E+15  0.6973151458E+00  0.9008440575E-17 -0.4732182813E-01
  0.4469889352E+00  0.1000000000E+01  0.1429536967E+00  0.4089158696E+00  0.8436718147E-17 -0.1587177834E+00  0.6096702246E+15  0.4087014354E+00  0.8264381355E-17 -0.1222871344E+00
  0.4000000000E+00  0.1000000000E+01  0.1429536967E+00  0.5373439067E+00  0.8991449628E-17 -0.1285165248E+00  0.6096702246E+15  0.5389424025E+00  0.9011633834E-17 -0.9351097024E-01
  0.8000000000E+00  0.1000000000E+01  0.2570463033E+00  0.1249998055E+01 -0.1139602048E-16 -0.6749249841E+00  0.6096702246E+15  0.1235920935E+01 -0.1143843040E-16 -0.6392891578E+00
  0.7530110648E+00  0.1000000000E+01  0.2570463033E+00  0.1226963992E+01 -0.9618295228E-17 -0.4720006983E+00  0.6096702246E+15  0.1220818926E+01 -0.9067046065E-17 -0.4350974070E+00
  0.6570463033E+00  0.1000000000E+01  0.2570463033E+00  0.9171364263E+00 -0.7538354495E-17 -0.4916053151E+00  0.6096702246E+15  0.9189409179E+00 -0.7586966870E-17 -0.4554146054E+00
  0.5429536967E+00  0.1000000000E+01  0.2570463033E+00  0.7260791683E+00 -0.1776306871E-18 -0.2757429491E+00  0.6096702246E+15  0.7289951566E+00 -0.1446229198E-18 -0.2434888439E+00
  0.4469889352E+00  0.1000000000E+01  0.2570463033E+00  0.4979920642E+00  0.3333263312E-18 -0.3770605907E+00  0.6096702246E+15  0.5012313696E+00  0.6991694374E-18 -0.3486970995E+00
  0.4000000000E+00  0.1000000000E+01  0.2570463033E+00  0.4970365514E+00  0.6034855965E-18 -0.3217830625E+00  0.6096702246E+15  0.5027624408E+00  0.6115342646E-18 -0.2950359410E+00
  0.8000000000E+00  0.1000000000E+01  0.3530110648E+00  0.1059801972E+01  0.6241459837E-18 -0.9053221963E+00  0.6096702246E+15  0.1040833749E+01  0.6349515454E-18 -0.8862635170E+00
  0.7530110648E+00  0.1000000000E+01  0.3530110648E+00  0.1099083633E+01  0.6422852048E-17 -0.7496439188E+00  0.6096702246E+15  0.1087611026E+01  0.5740385546E-17 -0.7265143106E+00
  0.6570463033E+00  0.1000000000E+01  0.3530110648E+00  0.8306073607E+00 -0.4817085225E-17 -0.6798690143E+00  0.6096702246E+15  0.8324570468E+00 -0.5285924610E-17 -0.6501848181E+00
  0.5429536967E+00  0.1000000000E+01  0.3530110648E+00  0.6684227929E+00 -0.7025292188E-17 -0.4460679714E+00  0.6096702246E+15  0.6764052466E+00 -0.7722764625E-17 -0.4188422513E+00
  0.4469889352E+00  0.1000000000E+01  0.3530110648E+00  0.4382399127E+00 -0.7361186562E-18 -0.4996880373E+00  0.6096702246E+15  0.4461483610E+00 -0.9057108266E-18 -0.4784817090E+00
  0.4000000000E+00  0.1000000000E+01  0.3530110648E+00  0.4757620835E+00 -0.3028611853E-18 -0.4564605780E+00  0.6096702246E+15  0.4853070955E+00 -0.3093159806E-18 -0.4383536290E+00
  0.8000000000E+00  0.1000000000E+01  0.4000000000E+00  0.1015173861E+01 -0.1006979368E-16 -0.1054487584E+01  0.6096702246E+15  0.9938022381E+00 -0.1007227924E-16 -0.1031477252E+01
  0.7530110648E+00  0.1000000000E+01  0.4000000000E+00  0.9384865269E+00 -0.5572455686E-17 -0.8424814591E+00  0.6096702246E+15  0.9230714908E+00 -0.5707028062E-17 -0.8168896043E+00
  0.6570463033E+00  0.1000000000E+01  0.4000000000E+00  0.7491986684E+00 -0.4313598865E-17 -0.7677795320E+00  0.6096702246E+15  0.7495755040E+00 -0.4138875420E-17 -0.7372478526E+00
  0.5429536967E+00  0.1000000000E+01  0.4000000000E+00  0.5993352618E+00  0.1283866682E-17 -0.5541810618E+00  0.6096702246E+15  0.6096346769E+00  0.1813375198E-17 -0.5234719713E+00
  0.4469889352E+00  0.1000000000E+01  0.4000000000E+00  0.4605445541E+00  0.1703843155E-17 -0.5707910007E+00  0.6096702246E+15  0.4719728098E+00  0.1853652925E-17 -0.5467614424E+00
  0.4000000000E+00  0.1000000000E+01  0.4000000000E+00  0.4213764544E+00  0.1121433160E-17 -0.5128716931E+00  0.6096702246E+15  0.4340087914E+00  0.1122391078E-17 -0.4928776101E+00
ZONE I=6, J=6, K=1, F=POINT
  0.1200000000E+01  0.1000000000E+01  0.0000000000E+00 -0.3263884366E-01  0.7090683335E-19  0.3622374071E-01  0.6096702246E+15 -0.3267988975E-01  0.7272699956E-19  0.3646237644E-01
  0.1153011065E+01  0.1000000000E+01  0.0000000000E+00 -0.5737133764E-02 -0.1981617826E-18 -0.9550293610E-02  0.6096702246E+15 -0.5977905469E-02 -0.2231012077E-18 -0.9462742239E-02
  0.1057046303E+01  0.1000000000E+01  0.0000000000E+00  0.1723793622E-02  0.2018761065E-19  0.5932752722E-02  0.6096702246E+15  0.1173250038E-02  0.6218253687E-20  0.5944359024E-02
  0.9429536967E+00  0.1000000000E+01  0.0000000000E+00 -0.2782634385E-02  0.2710208976E-19 -0.8329624819E-02  0.6096702246E+15 -0.3054790871E-02  0.2294414130E-19 -0.8275030467E-02
  0.8469889352E+00  0.1000000000E+01  0.0000000000E+00  0.3011430479E-02 -0.3201163285E-20  0.5316719177E-02  0.6096702246E+15  0.2594481762E-02 -0.5116498255E-20  0.5213559014E-02
  0.8000000000E+00  0.1000000000E+01  0.0000000000E+00 -0.2728532975E-01 -0.7607504383E-19 -0.1088662235E-01  0.6096702246E+15 -0.2835637967E-01 -0.7994917191E-19 -0.1099666151E-01
  0.1200000000E+01  0.1000000000E+01  0.4698893521E-01  0.1893169477E+01 -0.4144409169E-16 -0.1726861452E+00  0.6096702246E+15  0.1891311050E+01 -0.4133286186E-16 -0.1902581413E+00
  0.1153011065E+01  0.1000000000E+01  0.4698893521E-01  0.1251216908E+01 -0.2535377665E-16 -0.2540938098E-01  0.6096702246E+15  0.1247339040E+01 -0.2521712736E-16 -0.3909989442E-01
  0.1057046303E+01  0.1000000000E+01  0.4698893521E-01  0.1211261321E+01 -0.9796669627E-17 -0.6384013776E-01  0.6096702246E+15  0.1206159664E+01 -0.9870547719E-17 -0.6793865928E-01
  0.9429536967E+00  0.1000000000E+01  0.4698893521E-01  0.6999763817E+00 -0.1556767933E-16 -0.5940061734E-01  0.6096702246E+15  0.6960414962E+00 -0.1545537439E-16 -0.5207030810E-01
  0.8469889352E+00  0.1000000000E+01  0.4698893521E-01  0.6520608295E+00 -0.3123489535E-16 -0.6793268103E-01  0.6096702246E+15  0.6491787551E+00 -0.3111972260E-16 -0.5407734432E-01
  0.8000000000E+00  0.1000000000E+01  0.4698893521E-01  0.2736086640E+00 -0.2634003442E-16  0.1786661929E-01  0.6096702246E+15  0.2704453998E+00 -0.2630354402E-16  0.3342512804E-01
  0.1200000000E+01  0.1000000000E+01  0.1429536967E+00  0.3961401104E+01 -0.5700021269E-16 -0.4146113456E+00  0.6096702246E+15  0.3955614586E+01 -0.5676284994E-16 -0.4248539405E+00
  0.1153011065E+01  0.1000000000E+01  0.1429536967E+00  0.2624681675E+01 -0.6511148957E-16 -0.6182902724E+00  0.6096702246E+15  0.2610864605E+01 -0.6591917119E-16 -0.6241866414E+00
  0.1057046303E+01  0.1000000000E+01  0.1429536967E+00  0.2489930764E+01 -0.3661891459E-16 -0.4207178555E+00  0.6096702246E+15  0.2471553861E+01 -0.3658876472E-16 -0.4138909615E+00
  0.9429536967E+00  0.1000000000E+01  0.1429536967E+00  0.1494001260E+01 -0.3317006539E-16 -0.5774612071E+00  0.6096702246E+15  0.1478155561E+01 -0.3315273129E-16 -0.5534526263E+00
  0.8469889352E+00  0.1000000000E+01  0.1429536967E+00  0.1372349192E+01 -0.5130918302E-16 -0.3005065713E+00  0.6096702246E+15  0.1361590587E+01 -0.5124553874E-16 -0.2638109004E+00
  0.8000000000E+00  0.1000000000E+01  0.1429536967E+00  0.7127146127E+00 -0.5708606656E-16 -0.3079722820E+00  0.6096702246E+15  0.7052603821E+00 -0.5734441217E-16 -0.2669881356E+00
  0.1200000000E+01  0.1000000000E+01  0.2570463033E+00  0.3202243247E+01 -0.1733012933E-16 -0.1166556030E+01  0.6096702246E+15  0.3187834906E+01 -0.1726810067E-16 -0.1156546023E+01
  0.1153011065E+01  0.1000000000E+01  0.2570463033E+00  0.2826612230E+01 -0.5622259044E-16 -0.1415128128E+01  0.6096702246E+15  0.2804402517E+01 -0.5353360844E-16 -0.1403832520E+01
  0.1057046303E+01  0.1000000000E+01  0.2570463033E+00  0.2352543344E+01 -0.4034379928E-16 -0.1041238798E+01  0.6096702246E+15  0.2323162959E+01 -0.4040974683E-16 -0.1026055638E+01
  0.9429536967E+00  0.1000000000E+01  0.2570463033E+00  0.1766799085E+01 -0.3582238426E-16 -0.1190716957E+01  0.6096702246E+15  0.1737184058E+01 -0.3420836136E-16 -0.1167813067E+01
  0.8469889352E+00  0.1000000000E+01  0.2570463033E+00  0.1499755280E+01 -0.1280936079E-16 -0.6961489725E+00  0.6096702246E+15  0.1477193102E+01 -0.1316945917E-16 -0.6643028515E+00
  0.8000000000E+00  0.1000000000E+01  0.2570463033E+00  0.1211404460E+01 -0.1158775885E-16 -0.6771125887E+00  0.6096702246E+15  0.1196948203E+01 -0.1160486483E-16 -0.6412875418E+00
  0.1200000000E+01  0.1000000000E+01  0.3530110648E+00  0.2868526274E+01  0.5566819948E-17 -0.1946837249E+01  0.6096702246E+15  0.2851402150E+01  0.5595422170E-17 -0.1932134476E+01
  0.1153011065E+01  0.1000000000E+01  0.3530110648E+00  0.2322980437E+01 -0.1313986300E-16 -0.1872045242E+01  0.6096702246E+15  0.2299840343E+01 -0.1279940987E-16 -0.1856877860E+01
  0.1057046303E+01  0.1000000000E+01  0.3530110648E+00  0.1978559248E+01 -0.2380769021E-16 -0.1526233577E+01  0.6096702246E+15  0.1948179147E+01 -0.2398224674E-16 -0.1512076750E+01
  0.9429536967E+00  0.1000000000E+01  0.3530110648E+00  0.1464845026E+01 -0.2458462634E-16 -0.1456173380E+01  0.6096702246E+15  0.1430824194E+01 -0.2355630200E-16 -0.1441530242E+01
  0.8469889352E+00  0.1000000000E+01  0.3530110648E+00  0.1337657244E+01 -0.3494952125E-17 -0.1021097223E+01  0.6096702246E+15  0.1309369644E+01 -0.4485545061E-17 -0.1003731957E+01
  0.8000000000E+00  0.1000000000E+01  0.3530110648E+00  0.1012235258E+01  0.6715638316E-18 -0.9054775494E+00  0.6096702246E+15  0.9936611662E+00  0.6987254088E-18 -0.8864914343E+00
  0.1200000000E+01  0.1000000000E+01  0.4000000000E+00  0.2398087220E+01  0.1962428612E-17 -0.2074106916E+01  0.6096702246E+15  0.2379970300E+01  0.1992642598E-17 -0.2054212107E+01
  0.1153011065E+01  0.1000000000E+01  0.4000000000E+00  0.2211856622E+01 -0.2589627571E-17 -0.2184392497E+01  0.6096702246E+15  0.2188691244E+01 -0.3032123495E-17 -0.2164800183E+01
  0.1057046303E+01  0.1000000000E+01  0.4000000000E+00  0.1732114495E+01 -0.1706688240E-16 -0.1722395626E+01  0.6096702246E+15  0.1702062985E+01 -0.1725313744E-16 -0.1703090959E+01
  0.9429536967E+00  0.1000000000E+01  0.4000000000E+00  0.1350879203E+01 -0.2687781216E-16 -0.1637913212E+01  0.6096702246E+15  0.1316124882E+01 -0.2604386202E-16 -0.1617635884E+01
  0.8469889352E+00  0.1000000000E+01  0.4000000000E+00  0.1133667343E+01 -0.1648578865E-16 -0.1131615701E+01  0.6096702246E+15  0.1104266028E+01 -0.1679626865E-16 -0.1109901577E+01
  0.8000000000E+00  0.1000000000E+01  0.4000000000E+00  0.1008843450E+01 -0.1005622581E-16 -0.1057358143E+01  0.6096702246E+15  0.9882365743E+00 -0.1005306892E-16 -0.1034193915E+01
ZONE I=6, J=6, K=1, F=POINT
  0.1600000000E+01  0.1000000000E+01  0.0000000000E+00  0.1290405937E+00 -0.8613150193E-18 -0.7349290521E-01  0.6096702246E+15  0.1292858109E+00 -0.9833002869E-18 -0.7301083492E-01
  0.1553011065E+01  0.1000000000E+01  0.0000000000E+00  0.8665050806E-02 -0.1287757662E-17  0.4526945914E-01  0.6096702246E+15  0.9065034578E-02 -0.1338132952E-17  0.4517176926E-01
  0.1457046303E+01  0.1000000000E+01  0.0000000000E+00 -0.8952901917E-02 -0.3598402869E-19 -0.3336421659E-02  0.6096702246E+15 -0.8662140729E-02 -0.6100375642E-19 -0.3251006591E-02
  0.1342953697E+01  0.1000000000E+01  0.0000000000E+00  0.3971345505E-02  0.3466331059E-18  0.2995889402E-01  0.6096702246E+15  0.4394551718E-02  0.3704075331E-18  0.2999129537E-01
  0.1246988935E+01  0.1000000000E+01  0.0000000000E+00 -0.8902841540E-02  0.1021044394E-18 -0.8177326593E-02  0.6096702246E+15 -0.8697167764E-02  0.1057896942E-18 -0.8032289255E-02
  0.1200000000E+01  0.1000000000E+01  0.0000000000E+00  0.5731053592E-01  0.7532686303E-19  0.3625722566E-01  0.6096702246E+15  0.5714652203E-01  0.7725210215E-19  0.3647618387E-01
  0.1600000000E+01  0.1000000000E+01  0.4698893521E-01  0.2669380365E+01 -0.8768691746E-16  0.2167694462E+00  0.6096702246E+15  0.2668028225E+01 -0.8764268387E-16  0.1932662916E+00
  0.1553011065E+01  0.1000000000E+01  0.4698893521E-01  0.3091543899E+01 -0.4460688902E-16 -0.2834614025E+00  0.6096702246E+15  0.3089774463E+01 -0.4464130855E-16 -0.3060087188E+00
  0.1457046303E+01  0.1000000000E+01  0.4698893521E-01  0.2078787132E+01 -0.6230940726E-17 -0.7567259563E-01  0.6096702246E+15  0.2077943110E+01 -0.6221396233E-17 -0.9429272336E-01
  0.1342953697E+01  0.1000000000E+01  0.4698893521E-01  0.2082868389E+01  0.3205126848E-16 -0.4231488283E-01  0.6096702246E+15  0.2083243988E+01  0.3203867495E-16 -0.6072883130E-01
  0.1246988935E+01  0.1000000000E+01  0.4698893521E-01  0.1575414665E+01 -0.4006162223E-17  0.4969263493E-02  0.6096702246E+15  0.1574777574E+01 -0.4016896283E-17 -0.1382377922E-01
  0.1200000000E+01  0.1000000000E+01  0.4698893521E-01  0.1992741696E+01 -0.4573956521E-16 -0.1783594699E+00  0.6096702246E+15  0.1989154781E+01 -0.4560003657E-16 -0.1956045514E+00
  0.1600000000E+01  0.1000000000E+01  0.1429536967E+00  0.4741690555E+01 -0.2669595761E-15 -0.2016772751E+01  0.6096702246E+15  0.4730364712E+01 -0.2668845972E-15 -0.2028065791E+01
  0.1553011065E+01  0.1000000000E+01  0.1429536967E+00  0.6386510299E+01 -0.1610676572E-15 -0.1073573665E+01  0.6096702246E+15  0.6382807046E+01 -0.1609291689E-15 -0.1085644649E+01
  0.1457046303E+01  0.1000000000E+01  0.1429536967E+00  0.4312307619E+01  0.3186390432E-16 -0.9172455328E+00  0.6096702246E+15  0.4311971152E+01  0.3159454660E-16 -0.9297249964E+00
  0.1342953697E+01  0.1000000000E+01  0.1429536967E+00  0.4415316974E+01  0.1102643528E-15 -0.9016692992E-01  0.6096702246E+15  0.4417565256E+01  0.1103224173E-15 -0.1044353722E+00
  0.1246988935E+01  0.1000000000E+01  0.1429536967E+00  0.3273997210E+01  0.2906083388E-16 -0.5366198973E+00  0.6096702246E+15  0.3271665983E+01  0.2947286791E-16 -0.5492628513E+00
  0.1200000000E+01  0.1000000000E+01  0.1429536967E+00  0.4125385871E+01 -0.6117323469E-16 -0.4098403329E+00  0.6096702246E+15  0.4112681780E+01 -0.6086999131E-16 -0.4205305691E+00
  0.1600000000E+01  0.1000000000E+01  0.2570463033E+00  0.8123078338E+01  0.4979683771E-16 -0.4141158482E+01  0.6096702246E+15  0.8130645501E+01  0.4978527083E-16 -0.4137370161E+01
  0.1553011065E+01  0.1000000000E+01  0.2570463033E+00  0.7030341726E+01  0.7121286992E-16 -0.2753474170E+01  0.6096702246E+15  0.7032179461E+01  0.7126134060E-16 -0.2746300098E+01
  0.1457046303E+01  0.1000000000E+01  0.2570463033E+00  0.5731728977E+01  0.1652075356E-15 -0.2279741846E+01  0.6096702246E+15  0.5735650300E+01  0.1652424041E-15 -0.2275402943E+01
  0.1342953697E+01  0.1000000000E+01  0.2570463033E+00  0.4411433448E+01  0.1344354942E-15 -0.8439766363E+00  0.6096702246E+15  0.4414833506E+01  0.1345368148E-15 -0.8406655113E+00
  0.1246988935E+01  0.1000000000E+01  0.2570463033E+00  0.3489983705E+01  0.3883479687E-16 -0.1400251798E+01  0.6096702246E+15  0.3482560901E+01  0.3850852061E-16 -0.1392616441E+01
  0.1200000000E+01  0.1000000000E+01  0.2570463033E+00  0.3244691924E+01 -0.1769585867E-16 -0.1159001755E+01  0.6096702246E+15  0.3230198892E+01 -0.1760409453E-16 -0.1150615915E+01
  0.1600000000E+01  0.1000000000E+01  0.3530110648E+00  0.5865043268E+01  0.9204564312E-16 -0.4855346214E+01  0.6096702246E+15  0.5865881687E+01  0.9208099754E-16 -0.4848640943E+01
  0.1553011065E+01  0.1000000000E+01  0.3530110648E+00  0.5995225093E+01  0.1096872431E-15 -0.4322632272E+01  0.6096702246E+15  0.5997037078E+01  0.1097177982E-15 -0.4316459875E+01
  0.1457046303E+01  0.1000000000E+01  0.3530110648E+00  0.4876264010E+01  0.1407479169E-15 -0.3309473213E+01  0.6096702246E+15  0.4881938705E+01  0.1408250974E-15 -0.3302621011E+01
  0.1342953697E+01  0.1000000000E+01  0.3530110648E+00  0.3940021059E+01  0.1220868038E-15 -0.2070766602E+01  0.6096702246E+15  0.3940959972E+01  0.1220060638E-15 -0.2061791292E+01
  0.1246988935E+01  0.1000000000E+01  0.3530110648E+00  0.2874469931E+01  0.3857672658E-16 -0.2023466571E+01  0.6096702246E+15  0.2862675933E+01  0.3893865129E-16 -0.2010284425E+01
  0.1200000000E+01  0.1000000000E+01  0.3530110648E+00  0.2945328705E+01  0.5625120386E-17 -0.1947633257E+01  0.6096702246E+15  0.2926458637E+01  0.5643059561E-17 -0.1932528440E+01
  0.1600000000E+01  0.1000000000E+01  0.4000000000E+00  0.5863816505E+01  0.7011364076E-16 -0.5732866982E+01  0.6096702246E+15  0.5865381261E+01  0.7012169937E-16 -0.5720759880E+01
  0.1553011065E+01  0.1000000000E+01  0.4000000000E+00  0.5135237269E+01  0.1017477060E-15 -0.4393592965E+01  0.6096702246E+15  0.5138006117E+01  0.1018619658E-15 -0.4382744928E+01
  0.1457046303E+01  0.1000000000E+01  0.4000000000E+00  0.4571270874E+01  0.1095863000E-15 -0.3772477272E+01  0.6096702246E+15  0.4575616932E+01  0.1096854613E-15 -0.3759851862E+01
  0.1342953697E+01  0.1000000000E+01  0.4000000000E+00  0.3490477844E+01  0.1136546599E-15 -0.2325553681E+01  0.6096702246E+15  0.3490759502E+01  0.1137140779E-15 -0.2311121657E+01
  0.1246988935E+01  0.1000000000E+01  0.4000000000E+00  0.2790405022E+01  0.2804784080E-16 -0.2418513056E+01  0.6096702246E+15  0.2775960204E+01  0.2824699187E-16 -0.2399861658E+01
  0.1200000000E+01  0.1000000000E+01  0.4000000000E+00  0.2375671410E+01  0.2219905186E-17 -0.2064332884E+01  0.6096702246E+15  0.2357853337E+01  0.2238561637E-17 -0.2045775897E+01
ZONE I=6, J=6, K=1, F=POINT
  0.2000000000E+01  0.1000000000E+01  0.0000000000E+00  0.2401987995E+01  0.7015796504E-19  0.2123341343E+02  0.6096702246E+15  0.2429882186E+01  0.9263913087E-19  0.2215459194E+02
  0.1953011065E+01  0.1000000000E+01  0.0000000000E+00  0.1290142697E+01 -0.3722094195E-16 -0.1362912307E+00  0.6096702246E+15  0.1294971234E+01 -0.3601873301E-16 -0.1498067530E+00
  0.1857046303E+01  0.1000000000E+01  0.0000000000E+00 -0.3085637012E+00 -0.1892648408E-16  0.1534971994E+00  0.6096702246E+15 -0.3085971756E+00 -0.1939092899E-16  0.1516038661E+00
  0.1742953697E+01  0.1000000000E+01  0.0000000000E+00  0.1322359769E+00  0.3055096091E-18 -0.3900923436E-01  0.6096702246E+15  0.1339130267E+00  0.2357661247E-18 -0.3840475348E-01
  0.1646988935E+01  0.1000000000E+01  0.0000000000E+00 -0.1294442126E+00  0.4217593306E-18  0.6056942460E-01  0.6096702246E+15 -0.1279339518E+00  0.3788367165E-18  0.5967575530E-01
  0.1600000000E+01  0.1000000000E+01  0.0000000000E+00  0.8602743267E-01 -0.9397235485E-18 -0.8572982164E-01  0.6096702246E+15  0.8619757619E-01 -0.1064044917E-17 -0.8388392719E-01
  0.2000000000E+01  0.1000000000E+01  0.4698893521E-01 -0.1238709378E-01  0.7300996838E-18  0.4848195418E+02  0.6096702246E+15 -0.5494198006E-01  0.6782438035E-18  0.4865726686E+02
  0.1953011065E+01  0.1000000000E+01  0.4698893521E-01  0.1101243226E+02  0.1472990369E-15  0.1520640993E+01  0.6096702246E+15  0.1100154609E+02  0.1460782395E-15  0.1536414060E+01
  0.1857046303E+01  0.1000000000E+01  0.4698893521E-01  0.1183649657E+02  0.3252986409E-15 -0.1865834937E+01  0.6096702246E+15  0.1184020789E+02  0.3256432599E-15 -0.1871288147E+01
  0.1742953697E+01  0.1000000000E+01  0.4698893521E-01  0.5771037623E+01  0.2143101360E-17 -0.7072770311E+00  0.6096702246E+15  0.5777487378E+01  0.2433138832E-17 -0.7247012840E+00
  0.1646988935E+01  0.1000000000E+01  0.4698893521E-01  0.4195985546E+01 -0.1118937487E-15 -0.6657994983E+00  0.6096702246E+15  0.4197034201E+01 -0.1121132554E-15 -0.6864996132E+00
  0.1600000000E+01  0.1000000000E+01  0.4698893521E-01  0.2506086100E+01 -0.8478388916E-16  0.2022585371E+00  0.6096702246E+15  0.2513880714E+01 -0.8454569230E-16  0.1735919602E+00
  0.2000000000E+01  0.1000000000E+01  0.1429536967E+00 -0.2809870552E+00  0.2486178148E-17  0.5050177786E+02  0.6096702246E+15 -0.2571459179E+00  0.2453226648E-17  0.5043904313E+02
  0.1953011065E+01  0.1000000000E+01  0.1429536967E+00  0.2779789062E+01 -0.5075830175E-15  0.1657593655E+02  0.6096702246E+15  0.2772407228E+01 -0.5069157395E-15  0.1661223436E+02
  0.1857046303E+01  0.1000000000E+01  0.1429536967E+00  0.1246636197E+02 -0.2446215564E-15 -0.3771957773E+01  0.6096702246E+15  0.1247296684E+02 -0.2452320320E-15 -0.3768211331E+01
  0.1742953697E+01  0.1000000000E+01  0.1429536967E+00  0.9039267210E+01  0.8580487852E-16 -0.4611772557E+01  0.6096702246E+15  0.9052515877E+01  0.8617247311E-16 -0.4620194468E+01
  0.1646988935E+01  0.1000000000E+01  0.1429536967E+00  0.7897331388E+01 -0.1317813873E-15 -0.2416186101E+01  0.6096702246E+15  0.7904921532E+01 -0.1314024057E-15 -0.2426116280E+01
  0.1600000000E+01  0.1000000000E+01  0.1429536967E+00  0.4375789483E+01 -0.2831267789E-15 -0.2015249749E+01  0.6096702246E+15  0.4398886239E+01 -0.2835807746E-15 -0.2032239631E+01
  0.2000000000E+01  0.1000000000E+01  0.2570463033E+00  0.1660355864E-01  0.1033652301E-17  0.4986944002E+02  0.6096702246E+15  0.1599960978E-01  0.9514198212E-18  0.4987524045E+02