TITLE = "Generated from ../MESH/Convergence_0000000000.hmesh and Convergence_0000003000.hsol"
VARIABLES = "x","y","z","veloT_x","veloT_y","veloT_z","slr_4","velo_x","velo_y","velo_z"
ZONE I=6, J=6, K=1, F=POINT
  0.4000000000E+00  0.1000000000E+01  0.0000000000E+00 -0.1162972417E-01  0.2873026390E-19  0.6786257659E-02  0.6386546004E+15 -0.1210851899E-01  0.2874388814E-19  0.6908556882E-02
  0.3530110648E+00  0.1000000000E+01  0.0000000000E+00 -0.1371800162E-02  0.9005370446E-20 -0.4393718688E-03  0.6386546004E+15 -0.1998410165E-02  0.6832515524E-20 -0.4086539651E-03
  0.2570463033E+00  0.1000000000E+01  0.0000000000E+00  0.8416155251E-04  0.1483658180E-20  0.2291114048E-02  0.6386546004E+15 -0.5794029243E-03  0.6458255800E-21  0.2265136565E-02
  0.1429536967E+00  0.1000000000E+01  0.0000000000E+00 -0.6472214664E-03  0.3019954807E-21 -0.1058292360E-02  0.6386546004E+15 -0.1331275113E-02  0.1137110891E-21 -0.1079358802E-02
  0.4698893521E-01  0.1000000000E+01  0.0000000000E+00  0.1927940656E-02 -0.2082002201E-20  0.1919765459E-02  0.6386546004E+15  0.1420005970E-02 -0.2257794044E-20  0.2012621644E-02
  0.0000000000E+00  0.1000000000E+01  0.0000000000E+00 -0.7449689116E-02  0.1156258258E-22  0.2049173347E-02  0.6386546004E+15 -0.7508868263E-02  0.9315524149E-23  0.2107307252E-02
  0.4000000000E+00  0.1000000000E+01  0.4698893521E-01  0.2663926763E+00  0.2768993344E-17 -0.3529282796E-01  0.6386546004E+15  0.2646143685E+00  0.2779368204E-17 -0.3125335653E-01
  0.3530110648E+00  0.1000000000E+01  0.4698893521E-01  0.1287021308E+00  0.2455331174E-17  0.9871804149E-03  0.6386546004E+15  0.1264796520E+00  0.2474264688E-17  0.4512043300E-02
  0.2570463033E+00  0.1000000000E+01  0.4698893521E-01  0.1033253452E+00  0.9014539572E-18 -0.1139341994E-01  0.6386546004E+15  0.1014591541E+00  0.9064545964E-18 -0.9628284602E-02
  0.1429536967E+00  0.1000000000E+01  0.4698893521E-01  0.9269664858E-02  0.1886011173E-18 -0.8174341912E-02  0.6386546004E+15  0.7303437406E-02  0.1838404035E-18 -0.7220025456E-02
  0.4698893521E-01  0.1000000000E+01  0.4698893521E-01  0.5738930783E-03  0.2822660656E-19 -0.9585182816E-02  0.6386546004E+15 -0.1030283759E-02  0.2616826261E-19 -0.8220156238E-02
  0.0000000000E+00  0.1000000000E+01  0.4698893521E-01 -0.1805746601E-01  0.9122329575E-21  0.2259793899E-02  0.6386546004E+15 -0.1810983776E-01  0.9133987896E-21  0.2770629365E-02
  0.4000000000E+00  0.1000000000E+01  0.1429536967E+00  0.5837560440E+00  0.9109531056E-17 -0.9718013867E-01  0.6386546004E+15  0.5851806396E+00  0.9124150085E-17 -0.7997331945E-01
  0.3530110648E+00  0.1000000000E+01  0.1429536967E+00  0.3298848026E+00  0.5269459977E-17 -0.1388442401E+00  0.6386546004E+15  0.3313466712E+00  0.5175749501E-17 -0.1244139418E+00
  0.2570463033E+00  0.1000000000E+01  0.1429536967E+00  0.2389799740E+00  0.1896139171E-17 -0.8941731872E-01  0.6386546004E+15  0.2403461689E+00  0.1902386426E-17 -0.8030447381E-01
  0.1429536967E+00  0.1000000000E+01  0.1429536967E+00  0.4631348446E-01  0.5763043284E-18 -0.1117795204E+00  0.6386546004E+15  0.4562454412E-01  0.5790683477E-18 -0.1077733333E+00
  0.4698893521E-01  0.1000000000E+01  0.1429536967E+00 -0.1268884031E-02  0.1115078337E-18 -0.1244005890E-01  0.6386546004E+15 -0.2856334658E-02  0.1018862012E-18 -0.1036078974E-01
  0.0000000000E+00  0.1000000000E+01  0.1429536967E+00 -0.2129141498E-01 -0.7251204407E-22 -0.1343003111E-02  0.6386546004E+15 -0.2125023877E-01 -0.2512912918E-21 -0.6561781027E-03
  0.4000000000E+00  0.1000000000E+01  0.2570463033E+00  0.6517207871E+00  0.2401136103E-17 -0.3292662970E+00  0.6386546004E+15  0.6619755403E+00  0.2423123053E-17 -0.2976073645E+00
  0.3530110648E+00  0.1000000000E+01  0.2570463033E+00  0.4858929411E+00  0.1728164853E-17 -0.3817155330E+00  0.6386546004E+15  0.4952831483E+00  0.2130724377E-17 -0.3534418586E+00
  0.2570463033E+00  0.1000000000E+01  0.2570463033E+00  0.3112642643E+00  0.1112827011E-17 -0.2749583093E+00  0.6386546004E+15  0.3213210142E+00  0.1108862366E-17 -0.2549215592E+00
  0.1429536967E+00  0.1000000000E+01  0.2570463033E+00  0.1012058269E+00  0.9688058217E-18 -0.2778566650E+00  0.6386546004E+15  0.1075830586E+00  0.9659077257E-18 -0.2689938875E+00
  0.4698893521E-01  0.1000000000E+01  0.2570463033E+00  0.1660953067E-01  0.8137032862E-18 -0.5392027335E-01  0.6386546004E+15  0.1751595823E-01  0.8470632788E-18 -0.5134950524E-01
  0.0000000000E+00  0.1000000000E+01  0.2570463033E+00 -0.1406370884E-01 -0.3680645144E-20 -0.1245513196E-02  0.6386546004E+15 -0.1407884361E-01 -0.2909795608E-20 -0.5915881207E-03
  0.4000000000E+00  0.1000000000E+01  0.3530110648E+00  0.6729485221E+00  0.2472122969E-17 -0.5654626909E+00  0.6386546004E+15  0.6886317843E+00  0.2460566684E-17 -0.5302667774E+00
  0.3530110648E+00  0.1000000000E+01  0.3530110648E+00  0.5012686207E+00  0.2158977130E-17 -0.5891581156E+00  0.6386546004E+15  0.5174640499E+00  0.2169783268E-17 -0.5568161751E+00
  0.2570463033E+00  0.1000000000E+01  0.3530110648E+00  0.3206962326E+00  0.8092922867E-18 -0.4665589706E+00  0.6386546004E+15  0.3410764509E+00  0.4698114253E-18 -0.4427468999E+00
  0.1429536967E+00  0.1000000000E+01  0.3530110648E+00  0.1055453256E+00  0.1382057577E-17 -0.4107743348E+00  0.6386546004E+15  0.1217900685E+00  0.1296919001E-17 -0.4006674371E+00
  0.4698893521E-01  0.1000000000E+01  0.3530110648E+00  0.2015806149E-01  0.4171831101E-18 -0.1150706900E+00  0.6386546004E+15  0.2489894063E-01  0.3916144642E-18 -0.1121454405E+00
  0.0000000000E+00  0.1000000000E+01  0.3530110648E+00 -0.1425290436E-01  0.4907772622E-20 -0.1635069486E-02  0.6386546004E+15 -0.1409063489E-01  0.5835552285E-20 -0.8429814625E-03
  0.4000000000E+00  0.1000000000E+01  0.4000000000E+00  0.6489558379E+00  0.4522328241E-17 -0.6847999157E+00  0.6386546004E+15  0.6668965507E+00  0.4529739280E-17 -0.6528344201E+00
  0.3530110648E+00  0.1000000000E+01  0.4000000000E+00  0.5274768895E+00  0.3863649769E-17 -0.7024145183E+00  0.6386546004E+15  0.5465993923E+00  0.3771064113E-17 -0.6730492692E+00
  0.2570463033E+00  0.1000000000E+01  0.4000000000E+00  0.3215493883E+00  0.1017259674E-17 -0.5621022444E+00  0.6386546004E+15  0.3472138927E+00  0.1131953534E-17 -0.5417899293E+00
  0.1429536967E+00  0.1000000000E+01  0.4000000000E+00  0.1150508414E+00  0.1570947033E-17 -0.4788127022E+00  0.6386546004E+15  0.1361588878E+00  0.1634991557E-17 -0.4707760654E+00
  0.4698893521E-01  0.1000000000E+01  0.4000000000E+00  0.1688019329E-01  0.3927808670E-18 -0.1435895474E+00  0.6386546004E+15  0.2305792442E-01  0.3821253021E-18 -0.1410418362E+00
  0.0000000000E+00  0.1000000000E+01  0.4000000000E+00 -0.6950693570E-02  0.8242350336E-20 -0.3384677008E-02  0.6386546004E+15 -0.6289554329E-02  0.7975544339E-20 -0.2441975192E-02
ZONE I=6, J=6, K=1, F=POINT
  0.8000000000E+00  0.1000000000E+01  0.0000000000E+00  0.1677222056E-01 -0.8178405759E-19 -0.1080053635E-01  0.6386546004E+15  0.1574720834E-01 -0.8595996474E-19 -0.1067567570E-01
  0.7530110648E+00  0.1000000000E+01  0.0000000000E+00  0.1920109017E-02  0.8020335550E-19  0.6138698105E-02  0.6386546004E+15  0.8660727028E-03  0.5069646763E-19  0.6168077623E-02
  0.6570463033E+00  0.1000000000E+01  0.0000000000E+00 -0.4813550648E-03  0.1954311869E-19  0.1115291503E-03  0.6386546004E+15 -0.1327683974E-02  0.8848590127E-20  0.1329841213E-03
  0.5429536967E+00  0.1000000000E+01  0.0000000000E+00  0.9067001237E-03  0.2620177994E-19  0.6897897580E-02  0.6386546004E+15  0.2535977143E-03  0.8132898462E-20  0.7019157876E-02
  0.4469889352E+00  0.1000000000E+01  0.0000000000E+00 -0.1390644640E-02 -0.2097685703E-19  0.4097271157E-03  0.6386546004E+15 -0.2042928139E-02 -0.4460204663E-19  0.4389144814E-03
  0.4000000000E+00  0.1000000000E+01  0.0000000000E+00  0.1495388447E-01  0.3231583212E-19  0.6497011710E-02  0.6386546004E+15  0.1431110909E-01  0.3236943630E-19  0.6595980953E-02
  0.8000000000E+00  0.1000000000E+01  0.4698893521E-01  0.3111292963E+00 -0.2488328899E-16  0.2800991788E-01  0.6386546004E+15  0.3059800784E+00 -0.2481835523E-16  0.2575309499E-01
  0.7530110648E+00  0.1000000000E+01  0.4698893521E-01  0.5080017610E+00 -0.2436220222E-16 -0.3048537537E-01  0.6386546004E+15  0.5045117214E+00 -0.2416368710E-16 -0.3136419110E-01
  0.6570463033E+00  0.1000000000E+01  0.4698893521E-01  0.2948046512E+00 -0.5126562799E-17 -0.1037705916E-02  0.6386546004E+15  0.2916858014E+00 -0.5162178066E-17  0.1220585064E-02
  0.5429536967E+00  0.1000000000E+01  0.4698893521E-01  0.3292983464E+00  0.4160422113E-17  0.4548637736E-02  0.6386546004E+15  0.3272575888E+00  0.4128505704E-17  0.9019321845E-02
  0.4469889352E+00  0.1000000000E+01  0.4698893521E-01  0.2035402701E+00  0.3711668415E-17  0.9362766849E-02  0.6386546004E+15  0.2026122572E+00  0.3712612595E-17  0.1383341645E-01
  0.4000000000E+00  0.1000000000E+01  0.4698893521E-01  0.3085343728E+00  0.2527256284E-17 -0.3604650792E-01  0.6386546004E+15  0.3065582776E+00  0.2538838929E-17 -0.3199505182E-01
  0.8000000000E+00  0.1000000000E+01  0.1429536967E+00  0.9544700658E+00 -0.5623024421E-16 -0.3014163317E+00  0.6386546004E+15  0.9430059213E+00 -0.5653083561E-16 -0.2988705806E+00
  0.7530110648E+00  0.1000000000E+01  0.1429536967E+00  0.1263324169E+01 -0.3649430126E-16 -0.1597833146E+00  0.6386546004E+15  0.1252121471E+01 -0.3646635173E-16 -0.1522151964E+00
  0.6570463033E+00  0.1000000000E+01  0.1429536967E+00  0.8486924743E+00 -0.5811286077E-17 -0.1626691639E+00  0.6386546004E+15  0.8402174851E+00 -0.5454192389E-17 -0.1450931317E+00
  0.5429536967E+00  0.1000000000E+01  0.1429536967E+00  0.7995634070E+00  0.8942915392E-17 -0.2917945250E-01  0.6386546004E+15  0.7970614094E+00  0.8884088946E-17 -0.6947791101E-02
  0.4469889352E+00  0.1000000000E+01  0.1429536967E+00  0.5098189093E+00  0.8762024144E-17 -0.1165861760E+00  0.6386546004E+15  0.5113502435E+00  0.8658376611E-17 -0.9666633045E-01
  0.4000000000E+00  0.1000000000E+01  0.1429536967E+00  0.6344365851E+00  0.9811795668E-17 -0.9663408002E-01  0.6386546004E+15  0.6362278586E+00  0.9833027669E-17 -0.7944091391E-01
  0.8000000000E+00  0.1000000000E+01  0.2570463033E+00  0.1808623553E+01 -0.1699805155E-16 -0.8014010564E+00  0.6386546004E+15  0.1787504475E+01 -0.1703696455E-16 -0.7850506495E+00
  0.7530110648E+00  0.1000000000E+01  0.2570463033E+00  0.1716982620E+01 -0.1231051376E-16 -0.5512340496E+00  0.6386546004E+15  0.1693522405E+01 -0.1191623322E-16 -0.5311598411E+00
  0.6570463033E+00  0.1000000000E+01  0.2570463033E+00  0.1309041346E+01 -0.6646594424E-17 -0.4970672587E+00  0.6386546004E+15  0.1289950835E+01 -0.6123588727E-17 -0.4683789652E+00
  0.5429536967E+00  0.1000000000E+01  0.2570463033E+00  0.1017762632E+01  0.1210600024E-17 -0.2536863895E+00  0.6386546004E+15  0.1014031391E+01  0.1133236605E-17 -0.2166993386E+00
  0.4469889352E+00  0.1000000000E+01  0.2570463033E+00  0.7173713238E+00  0.2523399269E-17 -0.3692910581E+00  0.6386546004E+15  0.7261452284E+00  0.2966275673E-17 -0.3342003957E+00
  0.4000000000E+00  0.1000000000E+01  0.2570463033E+00  0.6828134304E+00  0.2430546805E-17 -0.3286211826E+00  0.6386546004E+15  0.6933443250E+00  0.2451659351E-17 -0.2969992831E+00
  0.8000000000E+00  0.1000000000E+01  0.3530110648E+00  0.1890308794E+01 -0.3239562339E-17 -0.1220209482E+01  0.6386546004E+15  0.1863725593E+01 -0.3236068181E-17 -0.1200183124E+01
  0.7530110648E+00  0.1000000000E+01  0.3530110648E+00  0.1836536900E+01  0.1700573332E-17 -0.1001499167E+01  0.6386546004E+15  0.1809546409E+01  0.1967507013E-18 -0.9806577220E+00
  0.6570463033E+00  0.1000000000E+01  0.3530110648E+00  0.1415352440E+01 -0.4675706633E-17 -0.8259137024E+00  0.6386546004E+15  0.1388623184E+01 -0.4089514164E-17 -0.8023789935E+00
  0.5429536967E+00  0.1000000000E+01  0.3530110648E+00  0.1084428335E+01 -0.5118113432E-17 -0.5390684609E+00  0.6386546004E+15  0.1075734035E+01 -0.4835904419E-17 -0.5067858430E+00
  0.4469889352E+00  0.1000000000E+01  0.3530110648E+00  0.7248615419E+00  0.1801231299E-17 -0.5978655037E+00  0.6386546004E+15  0.7374457694E+00  0.1520656502E-17 -0.5621563111E+00
  0.4000000000E+00  0.1000000000E+01  0.3530110648E+00  0.7056189534E+00  0.2444403237E-17 -0.5652572126E+00  0.6386546004E+15  0.7210046016E+00  0.2431505427E-17 -0.5300583696E+00
  0.8000000000E+00  0.1000000000E+01  0.4000000000E+00  0.1924803193E+01 -0.9727924626E-17 -0.1460428445E+01  0.6386546004E+15  0.1896931892E+01 -0.9716741439E-17 -0.1445958800E+01
  0.7530110648E+00  0.1000000000E+01  0.4000000000E+00  0.1748277228E+01 -0.5729729874E-17 -0.1183570473E+01  0.6386546004E+15  0.1720920252E+01 -0.6019352002E-17 -0.1167827685E+01
  0.6570463033E+00  0.1000000000E+01  0.4000000000E+00  0.1389570542E+01 -0.2706367708E-17 -0.1001107486E+01  0.6386546004E+15  0.1360744178E+01 -0.2707413337E-17 -0.9821361347E+00
  0.5429536967E+00  0.1000000000E+01  0.4000000000E+00  0.1051604026E+01  0.5172680916E-17 -0.7251075531E+00  0.6386546004E+15  0.1039600990E+01  0.4943391421E-17 -0.7015594834E+00
  0.4469889352E+00  0.1000000000E+01  0.4000000000E+00  0.7705002221E+00  0.5431487264E-17 -0.7383249022E+00  0.6386546004E+15  0.7819028212E+00  0.5632192083E-17 -0.7079300814E+00
  0.4000000000E+00  0.1000000000E+01  0.4000000000E+00  0.6600443987E+00  0.4544610325E-17 -0.6840488516E+00  0.6386546004E+15  0.6769572223E+00  0.4547434131E-17 -0.6521632737E+00
ZONE I=6, J=6, K=1, F=POINT
  0.1200000000E+01  0.1000000000E+01  0.0000000000E+00 -0.3317790735E-01  0.5877348550E-19  0.3762048705E-01  0.6386546004E+15 -0.3383844076E-01  0.5963558415E-19  0.3742277636E-01
  0.1153011065E+01  0.1000000000E+01  0.0000000000E+00 -0.6340709494E-02 -0.2740252145E-18 -0.9462968215E-02  0.6386546004E+15 -0.7675304468E-02 -0.3478317507E-18 -0.9435496865E-02
  0.1057046303E+01  0.1000000000E+01  0.0000000000E+00  0.1180641108E-02 -0.3934048314E-20  0.5928317028E-02  0.6386546004E+15 -0.3294673277E-03 -0.4330423725E-19  0.6029416600E-02
  0.9429536967E+00  0.1000000000E+01  0.0000000000E+00 -0.3505759504E-02  0.6359754263E-20 -0.8308534370E-02  0.6386546004E+15 -0.4757118150E-02  0.1887632878E-20 -0.8242647055E-02
  0.8469889352E+00  0.1000000000E+01  0.0000000000E+00  0.2110883258E-02 -0.1972040777E-19  0.5593655263E-02  0.6386546004E+15  0.9517119492E-03 -0.2206988229E-19  0.5651267862E-02
  0.8000000000E+00  0.1000000000E+01  0.0000000000E+00 -0.2796647791E-01 -0.9138769781E-19 -0.1029097470E-01  0.6386546004E+15 -0.2904343190E-01 -0.9590330729E-19 -0.1016148254E-01
  0.1200000000E+01  0.1000000000E+01  0.4698893521E-01  0.2095462575E+01 -0.4198816645E-16 -0.1970726140E+00  0.6386546004E+15  0.2091658137E+01 -0.4179769708E-16 -0.2128709727E+00
  0.1153011065E+01  0.1000000000E+01  0.4698893521E-01  0.1421932165E+01 -0.2674270044E-16 -0.4942327136E-01  0.6386546004E+15  0.1415552757E+01 -0.2652682716E-16 -0.6409319085E-01
  0.1057046303E+01  0.1000000000E+01  0.4698893521E-01  0.1304307985E+01 -0.1312818071E-16 -0.8092319600E-01  0.6386546004E+15  0.1297062814E+01 -0.1323105018E-16 -0.9220721913E-01
  0.9429536967E+00  0.1000000000E+01  0.4698893521E-01  0.7206064097E+00 -0.1600824965E-16 -0.6359902771E-01  0.6386546004E+15  0.7137580877E+00 -0.1582159998E-16 -0.7053992332E-01
  0.8469889352E+00  0.1000000000E+01  0.4698893521E-01  0.6331416204E+00 -0.2910429519E-16 -0.5877097898E-01  0.6386546004E+15  0.6263733666E+00 -0.2880064187E-16 -0.6266238287E-01
  0.8000000000E+00  0.1000000000E+01  0.4698893521E-01  0.2500865372E+00 -0.2418518187E-16  0.3005478581E-01  0.6386546004E+15  0.2452187333E+00 -0.2412806473E-16  0.2775286389E-01
  0.1200000000E+01  0.1000000000E+01  0.1429536967E+00  0.4742472271E+01 -0.5912071065E-16 -0.5752249253E+00  0.6386546004E+15  0.4740436956E+01 -0.5896242646E-16 -0.5959306517E+00
  0.1153011065E+01  0.1000000000E+01  0.1429536967E+00  0.3319278812E+01 -0.6988443094E-16 -0.7767040570E+00  0.6386546004E+15  0.3308961929E+01 -0.7038065906E-16 -0.7955235344E+00
  0.1057046303E+01  0.1000000000E+01  0.1429536967E+00  0.2988099050E+01 -0.4187678954E-16 -0.5566245810E+00  0.6386546004E+15  0.2975296470E+01 -0.4186163882E-16 -0.5692554041E+00
  0.9429536967E+00  0.1000000000E+01  0.1429536967E+00  0.1797222041E+01 -0.3744328000E-16 -0.6604262692E+00  0.6386546004E+15  0.1786289165E+01 -0.3743388381E-16 -0.6661876451E+00
  0.8469889352E+00  0.1000000000E+01  0.1429536967E+00  0.1563158888E+01 -0.5314396968E-16 -0.3197178667E+00  0.6386546004E+15  0.1551963195E+01 -0.5288713231E-16 -0.3205484746E+00
  0.8000000000E+00  0.1000000000E+01  0.1429536967E+00  0.8715022109E+00 -0.5842443413E-16 -0.3030197321E+00  0.6386546004E+15  0.8612380580E+00 -0.5875486884E-16 -0.3004434464E+00
  0.1200000000E+01  0.1000000000E+01  0.2570463033E+00  0.4662666464E+01 -0.1146424383E-16 -0.1606406328E+01  0.6386546004E+15  0.4656775407E+01 -0.1139330676E-16 -0.1607026722E+01
  0.1153011065E+01  0.1000000000E+01  0.2570463033E+00  0.4172872254E+01 -0.4511467982E-16 -0.1841710425E+01  0.6386546004E+15  0.4159625906E+01 -0.4365612224E-16 -0.1843995231E+01
  0.1057046303E+01  0.1000000000E+01  0.2570463033E+00  0.3431285878E+01 -0.3923198025E-16 -0.1433840367E+01  0.6386546004E+15  0.3413052782E+01 -0.3926199138E-16 -0.1435758302E+01
  0.9429536967E+00  0.1000000000E+01  0.2570463033E+00  0.2577862732E+01 -0.3615937044E-16 -0.1486245104E+01  0.6386546004E+15  0.2559785365E+01 -0.3517483166E-16 -0.1481799592E+01
  0.8469889352E+00  0.1000000000E+01  0.2570463033E+00  0.2125910927E+01 -0.1910920741E-16 -0.8736562494E+00  0.6386546004E+15  0.2106528748E+01 -0.1959136562E-16 -0.8611205100E+00
  0.8000000000E+00  0.1000000000E+01  0.2570463033E+00  0.1771612795E+01 -0.1715180020E-16 -0.8038265208E+00  0.6386546004E+15  0.1750728820E+01 -0.1716746395E-16 -0.7871631645E+00
  0.1200000000E+01  0.1000000000E+01  0.3530110648E+00  0.4674256071E+01  0.2341584835E-16 -0.2661911368E+01  0.6386546004E+15  0.4674330645E+01  0.2344869902E-16 -0.2650414233E+01
  0.1153011065E+01  0.1000000000E+01  0.3530110648E+00  0.4004193493E+01  0.3045506875E-17 -0.2564934592E+01  0.6386546004E+15  0.3995632172E+01  0.3186342580E-17 -0.2556042046E+01
  0.1057046303E+01  0.1000000000E+01  0.3530110648E+00  0.3398237729E+01 -0.1754069699E-16 -0.2170213971E+01  0.6386546004E+15  0.3379619481E+01 -0.1758703080E-16 -0.2164819355E+01
  0.9429536967E+00  0.1000000000E+01  0.3530110648E+00  0.2603077934E+01 -0.2224902398E-16 -0.1977275178E+01  0.6386546004E+15  0.2577231478E+01 -0.2145097525E-16 -0.1968126089E+01
  0.8469889352E+00  0.1000000000E+01  0.3530110648E+00  0.2258894064E+01 -0.7879602699E-17 -0.1400574757E+01  0.6386546004E+15  0.2231418327E+01 -0.8812305765E-17 -0.1383345852E+01
  0.8000000000E+00  0.1000000000E+01  0.3530110648E+00  0.1843773267E+01 -0.3179520722E-17 -0.1220451160E+01  0.6386546004E+15  0.1818465243E+01 -0.3169682875E-17 -0.1200452293E+01
  0.1200000000E+01  0.1000000000E+01  0.4000000000E+00  0.4276975932E+01  0.2749837207E-16 -0.2919257738E+01  0.6386546004E+15  0.4278742065E+01  0.2752529311E-16 -0.2908272352E+01
  0.1153011065E+01  0.1000000000E+01  0.4000000000E+00  0.3972834291E+01  0.1796223300E-16 -0.3006118110E+01  0.6386546004E+15  0.3965666078E+01  0.1771387441E-16 -0.2996491445E+01
  0.1057046303E+01  0.1000000000E+01  0.4000000000E+00  0.3239747242E+01 -0.6634383076E-17 -0.2482586538E+01  0.6386546004E+15  0.3221663092E+01 -0.6797045648E-17 -0.2473453976E+01
  0.9429536967E+00  0.1000000000E+01  0.4000000000E+00  0.2583005129E+01 -0.2130317580E-16 -0.2261112474E+01  0.6386546004E+15  0.2554808123E+01 -0.2083808145E-16 -0.2252064261E+01
  0.8469889352E+00  0.1000000000E+01  0.4000000000E+00  0.2140489569E+01 -0.1558984461E-16 -0.1604918411E+01  0.6386546004E+15  0.2109977376E+01 -0.1577482479E-16 -0.1592701716E+01
  0.8000000000E+00  0.1000000000E+01  0.4000000000E+00  0.1921107578E+01 -0.9705185305E-17 -0.1463608602E+01  0.6386546004E+15  0.1893690796E+01 -0.9691476580E-17 -0.1448815746E+01
ZONE I=6, J=6, K=1, F=POINT
  0.1600000000E+01  0.1000000000E+01  0.0000000000E+00  0.1289049871E+00 -0.8939794515E-18 -0.7201045981E-01  0.6386546004E+15  0.1286283495E+00 -0.1015723061E-17 -0.7156134155E-01
  0.1553011065E+01  0.1000000000E+01  0.0000000000E+00  0.8436200092E-02 -0.1219192121E-17  0.4542504380E-01  0.6386546004E+15  0.8431325361E-02 -0.1248486141E-17  0.4526982372E-01
  0.1457046303E+01  0.1000000000E+01  0.0000000000E+00 -0.9156317132E-02 -0.3950237987E-19 -0.3295015584E-02  0.6386546004E+15 -0.9568199010E-02 -0.5038066549E-19 -0.3288167655E-02
  0.1342953697E+01  0.1000000000E+01  0.0000000000E+00  0.3418559589E-02  0.2989435273E-18  0.2988148792E-01  0.6386546004E+15  0.3215628245E-02  0.2876325251E-18  0.2982638268E-01
  0.1246988935E+01  0.1000000000E+01  0.0000000000E+00 -0.9508176942E-02  0.1185218170E-18 -0.8081910634E-02  0.6386546004E+15 -0.9860771398E-02  0.1214257956E-18 -0.8049195229E-02
  0.1200000000E+01  0.1000000000E+01  0.0000000000E+00  0.5638236420E-01  0.6248902129E-19  0.3764753614E-01  0.6386546004E+15  0.5542851725E-01  0.6312549096E-19  0.3747351795E-01
  0.1600000000E+01  0.1000000000E+01  0.4698893521E-01  0.2968787822E+01 -0.8946599348E-16  0.2119832000E+00  0.6386546004E+15  0.2966286052E+01 -0.8940669906E-16  0.2059028173E+00
  0.1553011065E+01  0.1000000000E+01  0.4698893521E-01  0.3417948104E+01 -0.4507813750E-16 -0.2908702517E+00  0.6386546004E+15  0.3415771706E+01 -0.4513307193E-16 -0.2976265034E+00
  0.1457046303E+01  0.1000000000E+01  0.4698893521E-01  0.2404259779E+01 -0.5180379547E-17 -0.9648245473E-01  0.6386546004E+15  0.2402051818E+01 -0.5116765026E-17 -0.1046954939E+00
  0.1342953697E+01  0.1000000000E+01  0.4698893521E-01  0.2377923511E+01  0.2901679547E-16 -0.6271102513E-01  0.6386546004E+15  0.2375966949E+01  0.2898928988E-16 -0.7513407888E-01
  0.1246988935E+01  0.1000000000E+01  0.4698893521E-01  0.1817578880E+01 -0.6624430562E-17 -0.2324851526E-01  0.6386546004E+15  0.1814330795E+01 -0.6741555096E-17 -0.3857741676E-01
  0.1200000000E+01  0.1000000000E+01  0.4698893521E-01  0.2192633385E+01 -0.4615856665E-16 -0.2027446553E+00  0.6386546004E+15  0.2186982039E+01 -0.4594060862E-16 -0.2181761712E+00
  0.1600000000E+01  0.1000000000E+01  0.1429536967E+00  0.6099118932E+01 -0.2679809493E-15 -0.1942385111E+01  0.6386546004E+15  0.6085751787E+01 -0.2678445849E-15 -0.1949910900E+01
  0.1553011065E+01  0.1000000000E+01  0.1429536967E+00  0.7723133581E+01 -0.1469782876E-15 -0.1083415277E+01  0.6386546004E+15  0.7722942660E+01 -0.1470563941E-15 -0.1092946313E+01
  0.1457046303E+01  0.1000000000E+01  0.1429536967E+00  0.5568108682E+01  0.3138367419E-16 -0.1003852795E+01  0.6386546004E+15  0.5570293264E+01  0.3131347788E-16 -0.1016989110E+01
  0.1342953697E+01  0.1000000000E+01  0.1429536967E+00  0.5490511203E+01  0.1015839307E-15 -0.2130286428E+00  0.6386546004E+15  0.5493123457E+01  0.1016815820E-15 -0.2306591276E+00
  0.1246988935E+01  0.1000000000E+01  0.1429536967E+00  0.4163108294E+01  0.2681563841E-16 -0.7079023466E+00  0.6386546004E+15  0.4162556648E+01  0.2710864069E-16 -0.7283359967E+00
  0.1200000000E+01  0.1000000000E+01  0.1429536967E+00  0.4906857703E+01 -0.6326530632E-16 -0.5700034881E+00  0.6386546004E+15  0.4895551908E+01 -0.6301758104E-16 -0.5913142640E+00
  0.1600000000E+01  0.1000000000E+01  0.2570463033E+00  0.1063055667E+02  0.8746821093E-16 -0.4017664825E+01  0.6386546004E+15  0.1064250987E+02  0.8742863492E-16 -0.4022490939E+01
  0.1553011065E+01  0.1000000000E+01  0.2570463033E+00  0.9466758102E+01  0.1120705448E-15 -0.2862942808E+01  0.6386546004E+15  0.9472801922E+01  0.1119638659E-15 -0.2863543629E+01
  0.1457046303E+01  0.1000000000E+01  0.2570463033E+00  0.7977536465E+01  0.1808760932E-15 -0.2573388102E+01  0.6386546004E+15  0.7981727409E+01  0.1809899923E-15 -0.2573375808E+01
  0.1342953697E+01  0.1000000000E+01  0.2570463033E+00  0.6305585884E+01  0.1316816947E-15 -0.1237217728E+01  0.6386546004E+15  0.6312100704E+01  0.1320187542E-15 -0.1236219720E+01
  0.1246988935E+01  0.1000000000E+01  0.2570463033E+00  0.5097600308E+01  0.3936433545E-16 -0.1856548056E+01  0.6386546004E+15  0.5099161809E+01  0.3944257695E-16 -0.1855749963E+01
  0.1200000000E+01  0.1000000000E+01  0.2570463033E+00  0.4702164622E+01 -0.1176324563E-16 -0.1597541062E+01  0.6386546004E+15  0.4696017265E+01 -0.1166348283E-16 -0.1600521707E+01
  0.1600000000E+01  0.1000000000E+01  0.3530110648E+00  0.8804783614E+01  0.1730724562E-15 -0.4751439279E+01  0.6386546004E+15  0.8807861055E+01  0.1730114178E-15 -0.4744954887E+01
  0.1553011065E+01  0.1000000000E+01  0.3530110648E+00  0.8885202773E+01  0.1838320478E-15 -0.4562496117E+01  0.6386546004E+15  0.8888346562E+01  0.1838409108E-15 -0.4555603804E+01
  0.1457046303E+01  0.1000000000E+01  0.3530110648E+00  0.7532956766E+01  0.1859308764E-15 -0.3869529532E+01  0.6386546004E+15  0.7534613194E+01  0.1857775880E-15 -0.3859577891E+01
  0.1342953697E+01  0.1000000000E+01  0.3530110648E+00  0.6201731166E+01  0.1434587829E-15 -0.2760687994E+01  0.6386546004E+15  0.6206797390E+01  0.1434818946E-15 -0.2745758359E+01
  0.1246988935E+01  0.1000000000E+01  0.3530110648E+00  0.4825992700E+01  0.5736284378E-16 -0.2757768618E+01  0.6386546004E+15  0.4831423760E+01  0.5716255290E-16 -0.2742936947E+01
  0.1200000000E+01  0.1000000000E+01  0.3530110648E+00  0.4750780216E+01  0.2350732473E-16 -0.2662537739E+01  0.6386546004E+15  0.4748590134E+01  0.2352339613E-16 -0.2650657536E+01
  0.1600000000E+01  0.1000000000E+01  0.4000000000E+00  0.8861516311E+01  0.1694098367E-15 -0.5597904921E+01  0.6386546004E+15  0.8865954302E+01  0.1693477129E-15 -0.5594108488E+01
  0.1553011065E+01  0.1000000000E+01  0.4000000000E+00  0.8081660423E+01  0.1918849368E-15 -0.4692120263E+01  0.6386546004E+15  0.8086266216E+01  0.1919345908E-15 -0.4687322038E+01
  0.1457046303E+01  0.1000000000E+01  0.4000000000E+00  0.7295280965E+01  0.1743209929E-15 -0.4463642447E+01  0.6386546004E+15  0.7293996371E+01  0.1744378376E-15 -0.4457246433E+01
  0.1342953697E+01  0.1000000000E+01  0.4000000000E+00  0.5816989054E+01  0.1483996019E-15 -0.3163123880E+01  0.6386546004E+15  0.5821698148E+01  0.1486655230E-15 -0.3152698713E+01
  0.1246988935E+01  0.1000000000E+01  0.4000000000E+00  0.4811518074E+01  0.5566597962E-16 -0.3288481877E+01  0.6386546004E+15  0.4818006763E+01  0.5553848904E-16 -0.3277009440E+01
  0.1200000000E+01  0.1000000000E+01  0.4000000000E+00  0.4250721536E+01  0.2775241061E-16 -0.2907990645E+01  0.6386546004E+15  0.4254259650E+01  0.2776631807E-16 -0.2899219292E+01
ZONE I=6, J=6, K=1, F=POINT
  0.2000000000E+01  0.1000000000E+01  0.0000000000E+00  0.2402331495E+01  0.7369860834E-19  0.2123404977E+02  0.6386546004E+15  0.2430247621E+01  0.9438297437E-19  0.2215524989E+02
  0.1953011065E+01  0.1000000000E+01  0.0000000000E+00  0.1290525835E+01 -0.3735479559E-16 -0.1373108162E+00  0.6386546004E+15  0.1295287693E+01 -0.3610336169E-16 -0.1503924768E+00
  0.1857046303E+01  0.1000000000E+01  0.0000000000E+00 -0.3081574006E+00 -0.1890003507E-16  0.1519062698E+00  0.6386546004E+15 -0.3081204537E+00 -0.1934810041E-16  0.1504256969E+00
  0.1742953697E+01  0.1000000000E+01  0.0000000000E+00  0.1331777650E+00  0.2282601812E-18 -0.3759995485E-01  0.6386546004E+15  0.1343306107E+00  0.1239678646E-18 -0.3718451884E-01
  0.1646988935E+01  0.1000000000E+01  0.0000000000E+00 -0.1284967783E+00  0.3467338018E-18  0.6071645929E-01  0.6386546004E+15 -0.1277203738E+00  0.3096127723E-18  0.5983107985E-01
  0.1600000000E+01  0.1000000000E+01  0.0000000000E+00  0.8745337606E-01 -0.9721600418E-18 -0.8419764898E-01  0.6386546004E+15  0.8685618527E-01 -0.1096159215E-17 -0.8238823740E-01
  0.2000000000E+01  0.1000000000E+01  0.4698893521E-01 -0.1187142627E-01  0.7440243755E-18  0.4848161176E+02  0.6386546004E+15 -0.5445444427E-01  0.6854751667E-18  0.4865724350E+02
  0.1953011065E+01  0.1000000000E+01  0.4698893521E-01  0.1096595987E+02  0.1386641664E-15  0.1471365734E+01  0.6386546004E+15  0.1095492498E+02  0.1374485137E-15  0.1489027577E+01
  0.1857046303E+01  0.1000000000E+01  0.4698893521E-01  0.1170054385E+02  0.2957975321E-15 -0.1877988308E+01  0.6386546004E+15  0.1170308581E+02  0.2961100882E-15 -0.1876116747E+01
  0.1742953697E+01  0.1000000000E+01  0.4698893521E-01  0.5821363876E+01 -0.3329893779E-16 -0.6590477976E+00  0.6386546004E+15  0.5825799242E+01 -0.3296587425E-16 -0.6632256064E+00
  0.1646988935E+01  0.1000000000E+01  0.4698893521E-01  0.4454626000E+01 -0.1210253257E-15 -0.6453043884E+00  0.6386546004E+15  0.4454039717E+01 -0.1211870460E-15 -0.6484387604E+00
  0.1600000000E+01  0.1000000000E+01  0.4698893521E-01  0.2806024196E+01 -0.8663810329E-16  0.1977182670E+00  0.6386546004E+15  0.2812920144E+01 -0.8639725341E-16  0.1863389696E+00
  0.2000000000E+01  0.1000000000E+01  0.1429536967E+00 -0.2814375062E+00  0.2717117414E-17  0.5050190402E+02  0.6386546004E+15 -0.2569137488E+00  0.2741968592E-17  0.5043954876E+02
  0.1953011065E+01  0.1000000000E+01  0.1429536967E+00  0.2802136091E+01 -0.5140228183E-15  0.1645327330E+02  0.6386546004E+15  0.2790267346E+01 -0.5137174379E-15  0.1649036477E+02
  0.1857046303E+01  0.1000000000E+01  0.1429536967E+00  0.1277233603E+02 -0.2539688153E-15 -0.3570921966E+01  0.6386546004E+15  0.1277271059E+02 -0.2542489483E-15 -0.3565335197E+01
  0.1742953697E+01  0.1000000000E+01  0.1429536967E+00  0.9962199259E+01 -0.8761489622E-17 -0.4182056201E+01  0.6386546004E+15  0.9967767523E+01 -0.8778577770E-17 -0.4187108269E+01
  0.1646988935E+01  0.1000000000E+01  0.1429536967E+00  0.9155718100E+01 -0.1577424799E-15 -0.2206311935E+01  0.6386546004E+15  0.9159373291E+01 -0.1574335208E-15 -0.2211354669E+01
  0.1600000000E+01  0.1000000000E+01  0.1429536967E+00  0.5729635919E+01 -0.2844342680E-15 -0.1942141998E+01  0.6386546004E+15  0.5756197397E+01 -0.2846520918E-15 -0.1954500520E+01
  0.2000000000E+01  0.1000000000E+01  0.2570463033E+00  0.1911975303E-01  0.1092194674E-17  0.4987118731E+02  0.6386546004E+15  0.1821084703E-01  0.1048270985E-17  0.4987682179E+02