TITLE = "Generated from ../MESH/Convergence_0000000000.hmesh and Convergence_0000007500.hsol"
VARIABLES = "x","y","z","veloT_x","veloT_y","veloT_z","slr_4","velo_x","velo_y","velo_z"
ZONE I=6, J=6, K=1, F=POINT
  0.4000000000E+00  0.1000000000E+01  0.0000000000E+00 -0.3024449506E-02  0.3020489213E-19  0.7373873228E-02  0.6267262879E+15 -0.4375194445E-02  0.3269799468E-19  0.6760870364E-02
  0.3530110648E+00  0.1000000000E+01  0.0000000000E+00  0.8082164341E-02  0.4089111617E-20 -0.4415766898E-03  0.6267262879E+15  0.5478312714E-02  0.6388964480E-20 -0.6926263688E-03
  0.2570463033E+00  0.1000000000E+01  0.0000000000E+00  0.7678333370E-02 -0.9788364288E-21  0.2166561896E-02  0.6267262879E+15  0.4835237072E-02  0.4907380003E-21  0.2101671888E-02
  0.1429536967E+00  0.1000000000E+01  0.0000000000E+00  0.6430727441E-02 -0.5087888840E-21 -0.1010592260E-02  0.6267262879E+15  0.3130897643E-02 -0.1558344895E-21 -0.9876420911E-03
  0.4698893521E-01  0.1000000000E+01  0.0000000000E+00  0.7485964747E-02 -0.2211788392E-20  0.1319673127E-02  0.6267262879E+15  0.4940881692E-02 -0.1865779049E-20  0.1348374627E-02
  0.0000000000E+00  0.1000000000E+01  0.0000000000E+00 -0.6930583262E-02  0.6988217390E-23  0.1418056415E-02  0.6267262879E+15 -0.7037030011E-02  0.1264326546E-23  0.1547405299E-02
  0.4000000000E+00  0.1000000000E+01  0.4698893521E-01  0.2950938621E+00  0.3329812293E-17  0.1729169100E-01  0.6267262879E+15  0.3072755723E+00  0.3261484361E-17 -0.2615894411E-01
  0.3530110648E+00  0.1000000000E+01  0.4698893521E-01  0.1530604381E+00  0.2816334716E-17  0.4559778763E-01  0.6267262879E+15  0.1596731305E+00  0.2796180341E-17  0.5215301725E-02
  0.2570463033E+00  0.1000000000E+01  0.4698893521E-01  0.1171275616E+00  0.1379701454E-17  0.1702782243E-01  0.6267262879E+15  0.1201623795E+00  0.1332021263E-17 -0.1251876059E-01
  0.1429536967E+00  0.1000000000E+01  0.4698893521E-01  0.2174601685E-01  0.4900846156E-18  0.1496183766E-02  0.6267262879E+15  0.2304216011E-01  0.4809354654E-18 -0.1830236902E-01
  0.4698893521E-01  0.1000000000E+01  0.4698893521E-01  0.1197327717E-01  0.1212311136E-18 -0.1485824038E-01  0.6267262879E+15  0.1193849647E-01  0.1276557604E-18 -0.2218983299E-01
  0.0000000000E+00  0.1000000000E+01  0.4698893521E-01 -0.1750066262E-01  0.6791751452E-21 -0.3041625355E-02  0.6267262879E+15 -0.1756058812E-01  0.6362533455E-21 -0.6633511068E-03
  0.4000000000E+00  0.1000000000E+01  0.1429536967E+00  0.6845443077E+00  0.1136532227E-16 -0.5958322002E-01  0.6267262879E+15  0.6945269097E+00  0.1147814419E-16 -0.1085826896E+00
  0.3530110648E+00  0.1000000000E+01  0.1429536967E+00  0.4146329716E+00  0.6466193923E-17 -0.1024300807E+00  0.6267262879E+15  0.4093890391E+00  0.6779398804E-17 -0.1480260347E+00
  0.2570463033E+00  0.1000000000E+01  0.1429536967E+00  0.2923771188E+00  0.3225096122E-17 -0.5902294325E-01  0.6267262879E+15  0.2859281683E+00  0.3199996795E-17 -0.9520941165E-01
  0.1429536967E+00  0.1000000000E+01  0.1429536967E+00  0.8493157506E-01  0.1336493698E-17 -0.9456507415E-01  0.6267262879E+15  0.7321813239E-01  0.1322391300E-17 -0.1188230267E+00
  0.4698893521E-01  0.1000000000E+01  0.1429536967E+00  0.2490775005E-01  0.3863091598E-18 -0.1423401985E-01  0.6267262879E+15  0.8794185398E-02  0.4221030548E-18 -0.2104825545E-01
  0.0000000000E+00  0.1000000000E+01  0.1429536967E+00 -0.2166315286E-01 -0.1321783889E-20 -0.7387133452E-02  0.6267262879E+15 -0.2168355162E-01 -0.1564614864E-20 -0.4055888023E-02
  0.4000000000E+00  0.1000000000E+01  0.2570463033E+00  0.8696857629E+00  0.5467148055E-17 -0.3836993689E+00  0.6267262879E+15  0.8876888217E+00  0.5489112103E-17 -0.4212028616E+00
  0.3530110648E+00  0.1000000000E+01  0.2570463033E+00  0.6686256882E+00  0.5294872776E-17 -0.4240920343E+00  0.6267262879E+15  0.6603154732E+00  0.4687243628E-17 -0.4661899062E+00
  0.2570463033E+00  0.1000000000E+01  0.2570463033E+00  0.4310095728E+00  0.3064604758E-17 -0.2899346971E+00  0.6267262879E+15  0.4155903141E+00  0.3075237427E-17 -0.3279001140E+00
  0.1429536967E+00  0.1000000000E+01  0.2570463033E+00  0.1846446827E+00  0.2080659754E-17 -0.2762157461E+00  0.6267262879E+15  0.1539172847E+00  0.2088367792E-17 -0.2968275790E+00
  0.4698893521E-01  0.1000000000E+01  0.2570463033E+00  0.6480688865E-01  0.1171828685E-17 -0.5687396041E-01  0.6267262879E+15  0.3045310907E-01  0.1160621830E-17 -0.5785061658E-01
  0.0000000000E+00  0.1000000000E+01  0.2570463033E+00 -0.1425700630E-01 -0.1946857013E-20 -0.5656149121E-02  0.6267262879E+15 -0.1441737513E-01 -0.2157455589E-20 -0.1520942541E-02
  0.4000000000E+00  0.1000000000E+01  0.3530110648E+00  0.1007375022E+01  0.5453968680E-17 -0.7122674103E+00  0.6267262879E+15  0.1039318414E+01  0.5444868851E-17 -0.7961516832E+00
  0.3530110648E+00  0.1000000000E+01  0.3530110648E+00  0.7702890959E+00  0.4876673158E-17 -0.7149858466E+00  0.6267262879E+15  0.7601704423E+00  0.4847373444E-17 -0.7938064966E+00
  0.2570463033E+00  0.1000000000E+01  0.3530110648E+00  0.4983146243E+00  0.1867119801E-17 -0.5383908039E+00  0.6267262879E+15  0.4671057180E+00  0.2712822447E-17 -0.5970316840E+00
  0.1429536967E+00  0.1000000000E+01  0.3530110648E+00  0.2306060404E+00  0.2224226585E-17 -0.4381785737E+00  0.6267262879E+15  0.1751885809E+00  0.2445805083E-17 -0.4643991605E+00
  0.4698893521E-01  0.1000000000E+01  0.3530110648E+00  0.8654015204E-01  0.8044928893E-18 -0.1277990272E+00  0.6267262879E+15  0.3336569433E-01  0.7784075371E-18 -0.1250806915E+00
  0.0000000000E+00  0.1000000000E+01  0.3530110648E+00 -0.1447824855E-01  0.6992526625E-20 -0.5455188225E-02  0.6267262879E+15 -0.1471331012E-01  0.5924304428E-20  0.2883397425E-03
  0.4000000000E+00  0.1000000000E+01  0.4000000000E+00  0.1039605016E+01  0.7138779182E-17 -0.8941403281E+00  0.6267262879E+15  0.1054883443E+01  0.7176573207E-17 -0.1026482563E+01
  0.3530110648E+00  0.1000000000E+01  0.4000000000E+00  0.8402325399E+00  0.5888003959E-17 -0.8774540606E+00  0.6267262879E+15  0.8152111468E+00  0.6094347419E-17 -0.9810887150E+00
  0.2570463033E+00  0.1000000000E+01  0.4000000000E+00  0.5279972423E+00  0.2914879509E-17 -0.6698954045E+00  0.6267262879E+15  0.4831972629E+00  0.2628255093E-17 -0.7350028042E+00
  0.1429536967E+00  0.1000000000E+01  0.4000000000E+00  0.2618942906E+00  0.2543721571E-17 -0.5228200432E+00  0.6267262879E+15  0.1903283394E+00  0.2284925035E-17 -0.5489194341E+00
  0.4698893521E-01  0.1000000000E+01  0.4000000000E+00  0.9310367326E-01  0.6724542058E-18 -0.1593182121E+00  0.6267262879E+15  0.2884503183E-01  0.6456130529E-18 -0.1541665508E+00
  0.0000000000E+00  0.1000000000E+01  0.4000000000E+00 -0.6516861698E-02  0.7071958234E-20 -0.5586153957E-02  0.6267262879E+15 -0.6839416671E-02  0.7440649256E-20  0.2095417359E-03
ZONE I=6, J=6, K=1, F=POINT
  0.8000000000E+00  0.1000000000E+01  0.0000000000E+00  0.3271414365E-01 -0.8694669336E-19 -0.1207939249E-01  0.6267262879E+15  0.3615084868E-01 -0.7868815108E-19 -0.1220996302E-01
  0.7530110648E+00  0.1000000000E+01  0.0000000000E+00  0.1640145581E-01  0.3894955143E-18  0.5733920123E-02  0.6267262879E+15  0.1886114667E-01  0.4659414845E-18  0.5621960940E-02
  0.6570463033E+00  0.1000000000E+01  0.0000000000E+00  0.1258543877E-01  0.1922248127E-18  0.6227558750E-04  0.6267262879E+15  0.1352169208E-01  0.2014661059E-18 -0.1293942056E-03
  0.5429536967E+00  0.1000000000E+01  0.0000000000E+00  0.1188155275E-01  0.3120333893E-18  0.6690784057E-02  0.6267262879E+15  0.1207113973E-01  0.3146110402E-18  0.6513568954E-02
  0.4469889352E+00  0.1000000000E+01  0.0000000000E+00  0.7296408654E-02  0.2401614359E-18  0.3833645745E-03  0.6267262879E+15  0.7069562801E-02  0.2339857862E-18  0.8444169524E-04
  0.4000000000E+00  0.1000000000E+01  0.0000000000E+00  0.2340463775E-01  0.3366423255E-19  0.7042679522E-02  0.6267262879E+15  0.2247669571E-01  0.3625274788E-19  0.6420752934E-02
  0.8000000000E+00  0.1000000000E+01  0.4698893521E-01  0.4272467645E+00 -0.2264350224E-16  0.8475964664E-01  0.6267262879E+15  0.4662168249E+00 -0.2311236284E-16  0.4198929304E-01
  0.7530110648E+00  0.1000000000E+01  0.4698893521E-01  0.6125577947E+00 -0.2270090868E-16  0.2700070449E-01  0.6267262879E+15  0.6460953149E+00 -0.2454577970E-16 -0.1647422467E-01
  0.6570463033E+00  0.1000000000E+01  0.4698893521E-01  0.3714575297E+00 -0.3501710159E-17  0.6167740049E-01  0.6267262879E+15  0.3975023175E+00 -0.3253507633E-17  0.2105568165E-01
  0.5429536967E+00  0.1000000000E+01  0.4698893521E-01  0.3799766398E+00  0.5120172296E-17  0.7125481549E-01  0.6267262879E+15  0.4017995651E+00  0.5467030023E-17  0.3210295799E-01
  0.4469889352E+00  0.1000000000E+01  0.4698893521E-01  0.2363896998E+00  0.4257303300E-17  0.6903260117E-01  0.6267262879E+15  0.2541558184E+00  0.4185768690E-17  0.2623410998E-01
  0.4000000000E+00  0.1000000000E+01  0.4698893521E-01  0.3366999652E+00  0.3091059664E-17  0.1654413534E-01  0.6267262879E+15  0.3496017387E+00  0.3015788804E-17 -0.2690958106E-01
  0.8000000000E+00  0.1000000000E+01  0.1429536967E+00  0.1345959269E+01 -0.5048198717E-16 -0.2919339360E+00  0.6267262879E+15  0.1391919968E+01 -0.4923164562E-16 -0.3254426003E+00
  0.7530110648E+00  0.1000000000E+01  0.1429536967E+00  0.1609620211E+01 -0.3177295671E-16 -0.1441532690E+00  0.6267262879E+15  0.1646589009E+01 -0.3178187230E-16 -0.1812909133E+00
  0.6570463033E+00  0.1000000000E+01  0.1429536967E+00  0.1107363134E+01 -0.1850066804E-17 -0.1388598654E+00  0.6267262879E+15  0.1133105461E+01 -0.2912430866E-17 -0.1794326992E+00
  0.5429536967E+00  0.1000000000E+01  0.1429536967E+00  0.9728731690E+00  0.1178135835E-16  0.2209032357E-02  0.6267262879E+15  0.9980646021E+00  0.1247347347E-16 -0.4064293136E-01
  0.4469889352E+00  0.1000000000E+01  0.1429536967E+00  0.6274156973E+00  0.1019998949E-16 -0.8045733780E-01  0.6267262879E+15  0.6486080483E+00  0.1029350651E-16 -0.1285332365E+00
  0.4000000000E+00  0.1000000000E+01  0.1429536967E+00  0.7362640310E+00  0.1207807187E-16 -0.5900095287E-01  0.6267262879E+15  0.7457197872E+00  0.1219546677E-16 -0.1080185051E+00
  0.8000000000E+00  0.1000000000E+01  0.2570463033E+00  0.2593485242E+01 -0.9025532327E-17 -0.9337120023E+00  0.6267262879E+15  0.2647107092E+01 -0.8876222278E-17 -0.9746675053E+00
  0.7530110648E+00  0.1000000000E+01  0.2570463033E+00  0.2413650514E+01 -0.3510902588E-17 -0.6785909859E+00  0.6267262879E+15  0.2454385834E+01 -0.4318236176E-17 -0.7202872026E+00
  0.6570463033E+00  0.1000000000E+01  0.2570463033E+00  0.1841700852E+01 -0.1289363279E-17 -0.6069743932E+00  0.6267262879E+15  0.1860136214E+01 -0.1780805965E-17 -0.6369534102E+00
  0.5429536967E+00  0.1000000000E+01  0.2570463033E+00  0.1383275426E+01  0.5534441352E-17 -0.3321792024E+00  0.6267262879E+15  0.1410930920E+01  0.5991660608E-17 -0.3465701295E+00
  0.4469889352E+00  0.1000000000E+01  0.2570463033E+00  0.9729385558E+00  0.6806762540E-17 -0.4322344278E+00  0.6267262879E+15  0.1009986997E+01  0.6421715893E-17 -0.4588858078E+00
  0.4000000000E+00  0.1000000000E+01  0.2570463033E+00  0.9016783474E+00  0.5499216218E-17 -0.3830097559E+00  0.6267262879E+15  0.9194421201E+00  0.5524367171E-17 -0.4205687368E+00
  0.8000000000E+00  0.1000000000E+01  0.3530110648E+00  0.3001839799E+01  0.4076370532E-17 -0.1526142974E+01  0.6267262879E+15  0.3063375506E+01  0.4034674474E-17 -0.1636105767E+01
  0.7530110648E+00  0.1000000000E+01  0.3530110648E+00  0.2835654913E+01  0.9289890381E-17 -0.1296418843E+01  0.6267262879E+15  0.2874687425E+01  0.1138534855E-16 -0.1412539726E+01
  0.6570463033E+00  0.1000000000E+01  0.3530110648E+00  0.2166604801E+01 -0.1969695279E-17 -0.1072044632E+01  0.6267262879E+15  0.2162241371E+01 -0.2041006900E-18 -0.1183059518E+01
  0.5429536967E+00  0.1000000000E+01  0.3530110648E+00  0.1619605243E+01 -0.4395554725E-17 -0.7018480935E+00  0.6267262879E+15  0.1640403336E+01 -0.4857302954E-17 -0.7906257218E+00
  0.4469889352E+00  0.1000000000E+01  0.3530110648E+00  0.1134616677E+01  0.4315807916E-17 -0.7499319928E+00  0.6267262879E+15  0.1191151729E+01  0.5225087148E-17 -0.8345311430E+00
  0.4000000000E+00  0.1000000000E+01  0.3530110648E+00  0.1040829485E+01  0.5434736762E-17 -0.7119812112E+00  0.6267262879E+15  0.1072037956E+01  0.5408906600E-17 -0.7958557370E+00
  0.8000000000E+00  0.1000000000E+01  0.4000000000E+00  0.3164428352E+01 -0.3633944551E-17 -0.1909556651E+01  0.6267262880E+15  0.3238658870E+01 -0.3645371634E-17 -0.2050090433E+01
  0.7530110648E+00  0.1000000000E+01  0.4000000000E+00  0.2870278638E+01 -0.8200955777E-18 -0.1610038128E+01  0.6267262880E+15  0.2921136342E+01 -0.5073968598E-19 -0.1770846881E+01
  0.6570463033E+00  0.1000000000E+01  0.4000000000E+00  0.2217512760E+01  0.2421703649E-17 -0.1350991673E+01  0.6267262879E+15  0.2213785293E+01  0.1606065083E-17 -0.1550068816E+01
  0.5429536967E+00  0.1000000000E+01  0.4000000000E+00  0.1660779554E+01  0.1135024304E-16 -0.9577128087E+00  0.6267262879E+15  0.1673192331E+01  0.9538770175E-17 -0.1160824603E+01
  0.4469889352E+00  0.1000000000E+01  0.4000000000E+00  0.1269408448E+01  0.1038808796E-16 -0.9572545576E+00  0.6267262879E+15  0.1314137563E+01  0.1228970173E-16 -0.1120294994E+01
  0.4000000000E+00  0.1000000000E+01  0.4000000000E+00  0.1050642221E+01  0.7158552165E-17 -0.8932187327E+00  0.6267262879E+15  0.1065199464E+01  0.7179509598E-17 -0.1025585381E+01
ZONE I=6, J=6, K=1, F=POINT
  0.1200000000E+01  0.1000000000E+01  0.0000000000E+00 -0.1768023764E-01  0.5600616409E-19  0.3686363471E-01  0.6267262879E+15 -0.7136523106E-02  0.6743505169E-19  0.3673157368E-01
  0.1153011065E+01  0.1000000000E+01  0.0000000000E+00  0.9682375473E-02  0.4008186766E-18 -0.9475592018E-02  0.6267262879E+15  0.1966121002E-01  0.9165422094E-18 -0.9668421742E-02
  0.1057046303E+01  0.1000000000E+01  0.0000000000E+00  0.1732426553E-01  0.4133307195E-18  0.5979440885E-02  0.6267262879E+15  0.2584704594E-01  0.6305639966E-18  0.5725256624E-02
  0.9429536967E+00  0.1000000000E+01  0.0000000000E+00  0.1327454241E-01 -0.3945727722E-20 -0.8391622753E-02  0.6267262879E+15  0.1963960224E-01  0.1755919040E-19 -0.8518077027E-02
  0.8469889352E+00  0.1000000000E+01  0.0000000000E+00  0.1839793990E-01 -0.3097397405E-19  0.5176326602E-02  0.6267262879E+15  0.2301031840E-01 -0.2773007763E-19  0.5053391179E-02
  0.8000000000E+00  0.1000000000E+01  0.0000000000E+00 -0.1295946451E-01 -0.9617175081E-19 -0.1155892144E-01  0.6267262879E+15 -0.9377675217E-02 -0.8697152339E-19 -0.1165770130E-01
  0.1200000000E+01  0.1000000000E+01  0.4698893521E-01  0.2358178653E+01 -0.4203152978E-16 -0.1735665791E+00  0.6267262879E+15  0.2419919027E+01 -0.4474000159E-16 -0.1534013710E+00
  0.1153011065E+01  0.1000000000E+01  0.4698893521E-01  0.1661219634E+01 -0.2570810928E-16 -0.2283012501E-01  0.6267262879E+15  0.1723153180E+01 -0.2765443595E-16 -0.9803303842E-02
  0.1057046303E+01  0.1000000000E+01  0.4698893521E-01  0.1511756379E+01 -0.1126701556E-16 -0.4406128897E-01  0.6267262879E+15  0.1569735172E+01 -0.1058333795E-16 -0.4889248176E-01
  0.9429536967E+00  0.1000000000E+01  0.4698893521E-01  0.8829861688E+00 -0.1365769691E-16 -0.1765577208E-01  0.6267262879E+15  0.9347508059E+00 -0.1508790459E-16 -0.4123485078E-01
  0.8469889352E+00  0.1000000000E+01  0.4698893521E-01  0.7639367674E+00 -0.2692397695E-16 -0.5272311940E-02  0.6267262879E+15  0.8093199109E+00 -0.2890324788E-16 -0.4287925508E-01
  0.8000000000E+00  0.1000000000E+01  0.4698893521E-01  0.3656917024E+00 -0.2193744983E-16  0.8679205182E-01  0.6267262879E+15  0.4057459752E+00 -0.2243548025E-16  0.4399015645E-01
  0.1200000000E+01  0.1000000000E+01  0.1429536967E+00  0.5550519875E+01 -0.5870394515E-16 -0.6003693040E+00  0.6267262879E+15  0.5631038679E+01 -0.6067654459E-16 -0.5620557570E+00
  0.1153011065E+01  0.1000000000E+01  0.1429536967E+00  0.4077655952E+01 -0.6863088579E-16 -0.8059402790E+00  0.6267262879E+15  0.4160436857E+01 -0.6424613278E-16 -0.7762836125E+00
  0.1057046303E+01  0.1000000000E+01  0.1429536967E+00  0.3651079605E+01 -0.3581150309E-16 -0.5783181667E+00  0.6267262879E+15  0.3730441120E+01 -0.3599226087E-16 -0.5703740608E+00
  0.9429536967E+00  0.1000000000E+01  0.1429536967E+00  0.2336876208E+01 -0.3113225185E-16 -0.6689934501E+00  0.6267262879E+15  0.2406752381E+01 -0.3117792789E-16 -0.6843342110E+00
  0.8469889352E+00  0.1000000000E+01  0.1429536967E+00  0.2004683109E+01 -0.4761659136E-16 -0.3120312640E+00  0.6267262879E+15  0.2063640074E+01 -0.4880226879E-16 -0.3413486793E+00
  0.8000000000E+00  0.1000000000E+01  0.1429536967E+00  0.1261480726E+01 -0.5272375084E-16 -0.2936536213E+00  0.6267262879E+15  0.1310469711E+01 -0.5142409809E-16 -0.3270912985E+00
  0.1200000000E+01  0.1000000000E+01  0.2570463033E+00  0.6141705237E+01 -0.1004468945E-16 -0.1745040530E+01  0.6267262879E+15  0.6235241347E+01 -0.9981165436E-17 -0.1712854045E+01
  0.1153011065E+01  0.1000000000E+01  0.2570463033E+00  0.5577093648E+01 -0.3278467739E-16 -0.2003411102E+01  0.6267262879E+15  0.5684883246E+01 -0.4388156425E-16 -0.1982904160E+01
  0.1057046303E+01  0.1000000000E+01  0.2570463033E+00  0.4677785560E+01 -0.2982013723E-16 -0.1618393352E+01  0.6267262879E+15  0.4785191852E+01 -0.2965259546E-16 -0.1625820315E+01
  0.9429536967E+00  0.1000000000E+01  0.2570463033E+00  0.3627696802E+01 -0.2559084441E-16 -0.1659355638E+01  0.6267262879E+15  0.3714015516E+01 -0.3017312081E-16 -0.1691980694E+01
  0.8469889352E+00  0.1000000000E+01  0.2570463033E+00  0.3002484708E+01 -0.8739369862E-17 -0.1011162591E+01  0.6267262879E+15  0.3067795401E+01 -0.7163880757E-17 -0.1051102096E+01
  0.8000000000E+00  0.1000000000E+01  0.2570463033E+00  0.2555432065E+01 -0.9147311666E-17 -0.9364262470E+00  0.6267262879E+15  0.2609446434E+01 -0.9038625610E-17 -0.9769236269E+00
  0.1200000000E+01  0.1000000000E+01  0.3530110648E+00  0.6677152777E+01  0.2359971593E-16 -0.2913909087E+01  0.6267262879E+15  0.6793844629E+01  0.2359029880E-16 -0.2897015609E+01
  0.1153011065E+01  0.1000000000E+01  0.3530110648E+00  0.5908702771E+01  0.8059060909E-17 -0.2875436431E+01  0.6267262879E+15  0.6047421027E+01  0.6248828691E-17 -0.2872826683E+01
  0.1057046303E+01  0.1000000000E+01  0.3530110648E+00  0.5106488848E+01 -0.1153814936E-16 -0.2549240069E+01  0.6267262879E+15  0.5247023384E+01 -0.1122951296E-16 -0.2582743783E+01
  0.9429536967E+00  0.1000000000E+01  0.3530110648E+00  0.4052641901E+01 -0.1373093388E-16 -0.2355335906E+01  0.6267262879E+15  0.4158928104E+01 -0.1660848472E-16 -0.2429332355E+01
  0.8469889352E+00  0.1000000000E+01  0.3530110648E+00  0.3477262795E+01 -0.1464225886E-17 -0.1723463909E+01  0.6267262879E+15  0.3551857032E+01  0.1526232616E-17 -0.1823733770E+01
  0.8000000000E+00  0.1000000000E+01  0.3530110648E+00  0.2954202554E+01  0.4172615037E-17 -0.1526503097E+01  0.6267262879E+15  0.3016886877E+01  0.4107993916E-17 -0.1636457772E+01
  0.1200000000E+01  0.1000000000E+01  0.4000000000E+00  0.6504308066E+01  0.2527966367E-16 -0.3254024025E+01  0.6267262879E+15  0.6632474409E+01  0.2523415704E-16 -0.3240591636E+01
  0.1153011065E+01  0.1000000000E+01  0.4000000000E+00  0.6092634880E+01  0.1686233824E-16 -0.3421401118E+01  0.6267262879E+15  0.6245204673E+01  0.1903106429E-16 -0.3419688794E+01
  0.1057046303E+01  0.1000000000E+01  0.4000000000E+00  0.5142063093E+01 -0.3126015865E-17 -0.3001308366E+01  0.6267262879E+15  0.5299944745E+01 -0.1958242008E-17 -0.3025181920E+01
  0.9429536967E+00  0.1000000000E+01  0.4000000000E+00  0.4195087962E+01 -0.1409187431E-16 -0.2791660473E+01  0.6267262879E+15  0.4319717631E+01 -0.1729036435E-16 -0.2862852340E+01
  0.8469889352E+00  0.1000000000E+01  0.4000000000E+00  0.3493918246E+01 -0.9578835817E-17 -0.2080313698E+01  0.6267262879E+15  0.3585147468E+01 -0.8415079893E-17 -0.2199734212E+01
  0.8000000000E+00  0.1000000000E+01  0.4000000000E+00  0.3160461964E+01 -0.3599336165E-17 -0.1912994212E+01  0.6267262880E+15  0.3235013050E+01 -0.3629070487E-17 -0.2053012093E+01
ZONE I=6, J=6, K=1, F=POINT
  0.1600000000E+01  0.1000000000E+01  0.0000000000E+00  0.1394875209E+00 -0.9623752037E-18 -0.7108744236E-01  0.6267262879E+15  0.1575432892E+00 -0.1048015788E-17 -0.7190126070E-01
  0.1553011065E+01  0.1000000000E+01  0.0000000000E+00  0.1928094370E-01 -0.1720547954E-17  0.4528867553E-01  0.6267262879E+15  0.3738018924E-01 -0.2641823441E-17  0.4498834241E-01
  0.1457046303E+01  0.1000000000E+01  0.0000000000E+00  0.2978623566E-02 -0.3526121320E-18 -0.2933763685E-02  0.6267262879E+15  0.1881642890E-01 -0.7234645702E-18 -0.3201498284E-02
  0.1342953697E+01  0.1000000000E+01  0.0000000000E+00  0.1725332541E-01  0.1063096930E-17  0.2987885846E-01  0.6267262879E+15  0.3057874592E-01  0.1808525571E-17  0.2956038613E-01
  0.1246988935E+01  0.1000000000E+01  0.0000000000E+00  0.5315395447E-02  0.2286777462E-18 -0.8021085681E-02  0.6267262879E+15  0.1708908484E-01  0.2394306720E-18 -0.8236346661E-02
  0.1200000000E+01  0.1000000000E+01  0.0000000000E+00  0.7147636130E-01  0.6160769224E-19  0.3691539638E-01  0.6267262879E+15  0.8249078384E-01  0.7763517282E-19  0.3677154510E-01
  0.1600000000E+01  0.1000000000E+01  0.4698893521E-01  0.2963304801E+01 -0.8752020244E-16  0.2971315920E+00  0.6267262879E+15  0.3031255122E+01 -0.8908384495E-16  0.2954806736E+00
  0.1553011065E+01  0.1000000000E+01  0.4698893521E-01  0.3502526859E+01 -0.4500600957E-16 -0.2088139673E+00  0.6267262879E+15  0.3565582433E+01 -0.4310496722E-16 -0.2050565248E+00
  0.1457046303E+01  0.1000000000E+01  0.4698893521E-01  0.2599960223E+01 -0.4536913079E-17 -0.3776973179E-01  0.6267262879E+15  0.2663349724E+01 -0.6420372182E-17 -0.1617890240E-01
  0.1342953697E+01  0.1000000000E+01  0.4698893521E-01  0.2653433419E+01  0.2771287387E-16 -0.2508160911E-01  0.6267262879E+15  0.2716103706E+01  0.2827631441E-16 -0.2585734296E-02
  0.1246988935E+01  0.1000000000E+01  0.4698893521E-01  0.2088831857E+01 -0.8055377200E-17 -0.3244362325E-03  0.6267262879E+15  0.2147610778E+01 -0.5597391446E-17  0.2171119840E-01
  0.1200000000E+01  0.1000000000E+01  0.4698893521E-01  0.2457077174E+01 -0.4625174345E-16 -0.1792525774E+00  0.6267262879E+15  0.2516751757E+01 -0.4895718427E-16 -0.1587133832E+00
  0.1600000000E+01  0.1000000000E+01  0.1429536967E+00  0.6438710257E+01 -0.2725992230E-15 -0.1635538829E+01  0.6267262879E+15  0.6499915308E+01 -0.2683133587E-15 -0.1571897166E+01
  0.1553011065E+01  0.1000000000E+01  0.1429536967E+00  0.8221731700E+01 -0.1451390166E-15 -0.7968153568E+00  0.6267262879E+15  0.8275778978E+01 -0.1474656338E-15 -0.7374239425E+00
  0.1457046303E+01  0.1000000000E+01  0.1429536967E+00  0.6305837674E+01  0.2637464299E-16 -0.8044549997E+00  0.6267262879E+15  0.6366601175E+01  0.3001914735E-16 -0.7515733565E+00
  0.1342953697E+01  0.1000000000E+01  0.1429536967E+00  0.6359191367E+01  0.9656696394E-16 -0.1431195573E+00  0.6267262879E+15  0.6425763563E+01  0.9904143928E-16 -0.9627235101E-01
  0.1246988935E+01  0.1000000000E+01  0.1429536967E+00  0.5011545065E+01  0.2515717129E-16 -0.7279795655E+00  0.6267262879E+15  0.5073833883E+01  0.2041069442E-16 -0.6845913582E+00
  0.1200000000E+01  0.1000000000E+01  0.1429536967E+00  0.5718761402E+01 -0.6290934036E-16 -0.5946527938E+00  0.6267262879E+15  0.5787699466E+01 -0.6470265664E-16 -0.5571927396E+00
  0.1600000000E+01  0.1000000000E+01  0.2570463033E+00  0.1158998780E+02  0.9681733409E-16 -0.3307877553E+01  0.6267262879E+15  0.1168947807E+02  0.9704186669E-16 -0.3243192244E+01
  0.1553011065E+01  0.1000000000E+01  0.2570463033E+00  0.1062711364E+02  0.1188757179E-15 -0.2221309935E+01  0.6267262879E+15  0.1070305693E+02  0.1198209948E-15 -0.2157281759E+01
  0.1457046303E+01  0.1000000000E+01  0.2570463033E+00  0.9423684645E+01  0.1736805828E-15 -0.2147959065E+01  0.6267262879E+15  0.9498202268E+01  0.1778358633E-15 -0.2096717735E+01
  0.1342953697E+01  0.1000000000E+01  0.2570463033E+00  0.7887704411E+01  0.1222473897E-15 -0.1133339795E+01  0.6267262879E+15  0.7960301067E+01  0.1263411056E-15 -0.1091085957E+01
  0.1246988935E+01  0.1000000000E+01  0.2570463033E+00  0.6641972579E+01  0.3548026258E-16 -0.1959027567E+01  0.6267262879E+15  0.6713394165E+01  0.3952882822E-16 -0.1921037278E+01
  0.1200000000E+01  0.1000000000E+01  0.2570463033E+00  0.6181579276E+01 -0.1026279489E-16 -0.1735038192E+01  0.6267262879E+15  0.6274674000E+01 -0.1027742123E-16 -0.1705873528E+01
  0.1600000000E+01  0.1000000000E+01  0.3530110648E+00  0.1027136201E+02  0.1987557883E-15 -0.3625649899E+01  0.6267262879E+15  0.1036629125E+02  0.1983835650E-15 -0.3575884576E+01
  0.1553011065E+01  0.1000000000E+01  0.3530110648E+00  0.1058230092E+02  0.1983741999E-15 -0.3560994634E+01  0.6267262879E+15  0.1065749770E+02  0.1988777717E-15 -0.3509054121E+01
  0.1457046303E+01  0.1000000000E+01  0.3530110648E+00  0.9536295106E+01  0.1800297538E-15 -0.3244427766E+01  0.6267262879E+15  0.9617323294E+01  0.1840822688E-15 -0.3188921188E+01
  0.1342953697E+01  0.1000000000E+01  0.3530110648E+00  0.8337222115E+01  0.1321426841E-15 -0.2625639126E+01  0.6267262879E+15  0.8418404912E+01  0.1343004971E-15 -0.2582827171E+01
  0.1246988935E+01  0.1000000000E+01  0.3530110648E+00  0.6913590355E+01  0.5314613250E-16 -0.2934025702E+01  0.6267262879E+15  0.6996241110E+01  0.5045395620E-16 -0.2905995500E+01
  0.1200000000E+01  0.1000000000E+01  0.3530110648E+00  0.6756349809E+01  0.2371488490E-16 -0.2914100743E+01  0.6267262879E+15  0.6868310929E+01  0.2367638976E-16 -0.2897022930E+01
  0.1600000000E+01  0.1000000000E+01  0.4000000000E+00  0.1053212155E+02  0.1983712331E-15 -0.4284190270E+01  0.6267262879E+15  0.1063196466E+02  0.1982171706E-15 -0.4185525108E+01
  0.1553011065E+01  0.1000000000E+01  0.4000000000E+00  0.9997641004E+01  0.2086100118E-15 -0.3542582625E+01  0.6267262879E+15  0.1007381199E+02  0.2070498767E-15 -0.3443580504E+01
  0.1457046303E+01  0.1000000000E+01  0.4000000000E+00  0.9533321079E+01  0.1714115884E-15 -0.3762790345E+01  0.6267262879E+15  0.9617534457E+01  0.1712722343E-15 -0.3676537630E+01
  0.1342953697E+01  0.1000000000E+01  0.4000000000E+00  0.8186578036E+01  0.1339112793E-15 -0.3037725777E+01  0.6267262879E+15  0.8278894363E+01  0.1394158724E-15 -0.2976549721E+01
  0.1246988935E+01  0.1000000000E+01  0.4000000000E+00  0.7128462066E+01  0.4807791585E-16 -0.3521550636E+01  0.6267262879E+15  0.7222496824E+01  0.4689485440E-16 -0.3491579434E+01
  0.1200000000E+01  0.1000000000E+01  0.4000000000E+00  0.6478167158E+01  0.2552364820E-16 -0.3241421996E+01  0.6267262879E+15  0.6608584940E+01  0.2548515597E-16 -0.3231015485E+01
ZONE I=6, J=6, K=1, F=POINT
  0.2000000000E+01  0.1000000000E+01  0.0000000000E+00  0.2401315381E+01  0.7528492342E-19  0.2123313687E+02  0.6267262879E+15  0.2432325980E+01  0.1012233329E-18  0.2215748543E+02
  0.1953011065E+01  0.1000000000E+01  0.0000000000E+00  0.1294939662E+01 -0.3744923771E-16 -0.1391130298E+00  0.6267262879E+15  0.1322407036E+01 -0.3666651347E-16 -0.1483895110E+00
  0.1857046303E+01  0.1000000000E+01  0.0000000000E+00 -0.3009649311E+00 -0.1843244766E-16  0.1528620317E+00  0.6267262879E+15 -0.2749577819E+00 -0.1745393309E-16  0.1502360995E+00
  0.1742953697E+01  0.1000000000E+01  0.0000000000E+00  0.1419685295E+00  0.2218216226E-18 -0.3695218368E-01  0.6267262879E+15  0.1643326539E+00  0.1891541909E-18 -0.3642270697E-01
  0.1646988935E+01  0.1000000000E+01  0.0000000000E+00 -0.1171237559E+00  0.2556690128E-18  0.6073677214E-01  0.6267262879E+15 -0.9436684957E-01  0.1793691055E-18  0.5938664537E-01
  0.1600000000E+01  0.1000000000E+01  0.0000000000E+00  0.9750110203E-01 -0.1041764441E-17 -0.8310558139E-01  0.6267262879E+15  0.1146908489E+00 -0.1133030948E-17 -0.8259328686E-01
  0.2000000000E+01  0.1000000000E+01  0.4698893521E-01 -0.1464908505E-01  0.7431160337E-18  0.4848585035E+02  0.6267262879E+15 -0.5329997578E-01  0.6919037991E-18  0.4868493348E+02
  0.1953011065E+01  0.1000000000E+01  0.4698893521E-01  0.1090289393E+02  0.1343919621E-15  0.1414290813E+01  0.6267262879E+15  0.1097218894E+02  0.1339523685E-15  0.1506133690E+01
  0.1857046303E+01  0.1000000000E+01  0.4698893521E-01  0.1152844578E+02  0.2808221990E-15 -0.1930212823E+01  0.6267262879E+15  0.1162325121E+02  0.2876849887E-15 -0.1868196964E+01
  0.1742953697E+01  0.1000000000E+01  0.4698893521E-01  0.5629467832E+01 -0.4436827950E-16 -0.6310864495E+00  0.6267262879E+15  0.5717863763E+01 -0.4432455090E-16 -0.5903531351E+00
  0.1646988935E+01  0.1000000000E+01  0.4698893521E-01  0.4384089557E+01 -0.1201416035E-15 -0.5708514929E+00  0.6267262879E+15  0.4478744598E+01 -0.1253350311E-15 -0.5602904354E+00
  0.1600000000E+01  0.1000000000E+01  0.4698893521E-01  0.2798549461E+01 -0.8467179561E-16  0.2828322968E+00  0.6267262879E+15  0.2874941202E+01 -0.8601452646E-16  0.2759786653E+00
  0.2000000000E+01  0.1000000000E+01  0.1429536967E+00 -0.2810758040E+00  0.2808946168E-17  0.5050971840E+02  0.6267262879E+15 -0.2580022868E+00  0.2747518800E-17  0.5047470087E+02
  0.1953011065E+01  0.1000000000E+01  0.1429536967E+00  0.2720863807E+01 -0.5155279007E-15  0.1628209150E+02  0.6267262879E+15  0.2794598431E+01 -0.5074919496E-15  0.1641333480E+02
  0.1857046303E+01  0.1000000000E+01  0.1429536967E+00  0.1255091302E+02 -0.2612266311E-15 -0.3734409268E+01  0.6267262879E+15  0.1264975074E+02 -0.2673484859E-15 -0.3634332382E+01
  0.1742953697E+01  0.1000000000E+01  0.1429536967E+00  0.9829532250E+01 -0.4864359371E-16 -0.4035722996E+01  0.6267262879E+15  0.9937347012E+01 -0.3855924998E-16 -0.3951301587E+01
  0.1646988935E+01  0.1000000000E+01  0.1429536967E+00  0.9308570003E+01 -0.1661791446E-15 -0.1920392306E+01  0.6267262879E+15  0.9434197272E+01 -0.1656109629E-15 -0.1847129003E+01
  0.1600000000E+01  0.1000000000E+01  0.1429536967E+00  0.6066331913E+01 -0.2893750821E-15 -0.1636094475E+01  0.6267262879E+15  0.6167722265E+01 -0.2853495901E-15 -0.1576638765E+01
  0.2000000000E+01  0.1000000000E+01  0.2570463033E+00  0.1915357975E-01  0.1130129165E-17  0.4988203298E+02  0.6267262879E+15  0.1830747117E-01  0.1135391362E-17  0.4991127502E+02