TITLE = "Generated from ../MESH/Convergence_0000000000.hmesh and Convergence_0000009700.hsol"
VARIABLES = "x","y","z","veloT_x","veloT_y","veloT_z","slr_4","velo_x","velo_y","velo_z"
ZONE I=6, J=6, K=1, F=POINT
  0.4000000000E+00  0.1000000000E+01  0.0000000000E+00  0.2131107171E+00  0.1941330843E-18  0.1605708698E-01  0.6629582181E+15 -0.1154576922E+00  0.9888745815E-19  0.1424192691E-01
  0.3530110648E+00  0.1000000000E+01  0.0000000000E+00  0.2246462838E+00  0.2645571494E-19  0.1911043549E-03  0.6629582181E+15 -0.1252993314E+00  0.8002766539E-19  0.2244478821E-02
  0.2570463033E+00  0.1000000000E+01  0.0000000000E+00  0.1774082303E+00  0.6184540793E-20 -0.1477022666E-02  0.6629582180E+15 -0.1100245856E+00  0.3507312038E-19  0.5896662673E-02
  0.1429536967E+00  0.1000000000E+01  0.0000000000E+00  0.1763650457E+00 -0.6899311510E-20  0.3895229612E-02  0.6629582180E+15 -0.1003677298E+00  0.4385123998E-20  0.2668456095E-02
  0.4698893521E-01  0.1000000000E+01  0.0000000000E+00  0.1513436387E+00  0.2941160909E-19 -0.2350519213E-01  0.6629582180E+15 -0.6309154854E-01  0.1722477496E-19  0.1339394968E-02
  0.0000000000E+00  0.1000000000E+01  0.0000000000E+00  0.1416490845E-01 -0.3789227352E-21 -0.2040523250E-01  0.6629582180E+15 -0.7996630559E-02 -0.2122616146E-21  0.2825928834E-02
  0.4000000000E+00  0.1000000000E+01  0.4698893521E-01  0.1318806682E+01 -0.2861795184E-17  0.1797770332E+00  0.6629582181E+15  0.6704531828E+00  0.8522493330E-18 -0.9607582277E+00
  0.3530110648E+00  0.1000000000E+01  0.4698893521E-01  0.1115974041E+01 -0.7516158484E-17  0.2811067471E-01  0.6629582181E+15  0.4235971627E+00  0.9810003433E-18 -0.9080647669E+00
  0.2570463033E+00  0.1000000000E+01  0.4698893521E-01  0.8630292416E+00  0.1480040849E-18 -0.1723705490E+00  0.6629582180E+15  0.2829974139E+00  0.3052078512E-19 -0.7633672043E+00
  0.1429536967E+00  0.1000000000E+01  0.4698893521E-01  0.7575385701E+00  0.2237851495E-17 -0.4359210816E+00  0.6629582180E+15  0.1811598205E+00  0.5501994502E-18 -0.5974119356E+00
  0.4698893521E-01  0.1000000000E+01  0.4698893521E-01  0.5697051785E+00  0.9247407900E-18 -0.5689924207E+00  0.6629582180E+15  0.1466778166E+00  0.4907211350E-18 -0.3318789192E+00
  0.0000000000E+00  0.1000000000E+01  0.4698893521E-01  0.7265771519E-02 -0.9155431183E-20 -0.1463228838E+00  0.6629582180E+15 -0.1587561080E-01 -0.2659083655E-20  0.6174419145E-01
  0.4000000000E+00  0.1000000000E+01  0.1429536967E+00  0.2006226808E+01  0.2856533713E-16  0.2831232738E+00  0.6629582181E+15  0.9760914725E+00  0.1395761893E-16 -0.1236516987E+01
  0.3530110648E+00  0.1000000000E+01  0.1429536967E+00  0.1547450566E+01  0.3181734304E-17  0.1555999118E+00  0.6629582181E+15  0.4077372179E+00  0.1315449504E-16 -0.1203390850E+01
  0.2570463033E+00  0.1000000000E+01  0.1429536967E+00  0.1290052581E+01  0.3435514660E-17 -0.5766172288E-01  0.6629582180E+15  0.2773608990E+00  0.2574160081E-17 -0.9741853960E+00
  0.1429536967E+00  0.1000000000E+01  0.1429536967E+00  0.1089491238E+01  0.1041436504E-17 -0.4923050927E+00  0.6629582180E+15 -0.3476324132E-01  0.8515943784E-18 -0.7978810989E+00
  0.4698893521E-01  0.1000000000E+01  0.1429536967E+00  0.6038238133E+00  0.3088970618E-17 -0.5987979955E+00  0.6629582180E+15 -0.2422615277E+00  0.1850279466E-17 -0.3105352923E+00
  0.0000000000E+00  0.1000000000E+01  0.1429536967E+00 -0.3481623977E-01 -0.4735492187E-19 -0.1511992834E+00  0.6629582180E+15 -0.2932609111E-01 -0.1728044522E-19  0.9364071682E-01
  0.4000000000E+00  0.1000000000E+01  0.2570463033E+00  0.2777011016E+01  0.6263200613E-17 -0.9223084574E-01  0.6629582181E+15  0.1554279148E+01  0.5273065554E-17 -0.1166127642E+01
  0.3530110648E+00  0.1000000000E+01  0.2570463033E+00  0.2190421665E+01  0.6149938125E-17 -0.3674116022E+00  0.6629582181E+15  0.7183577788E+00 -0.7723651764E-17 -0.1326815901E+01
  0.2570463033E+00  0.1000000000E+01  0.2570463033E+00  0.1817047857E+01  0.2763829267E-17 -0.4200696211E+00  0.6629582180E+15  0.3482965019E+00  0.2913115320E-17 -0.1147573706E+01
  0.1429536967E+00  0.1000000000E+01  0.2570463033E+00  0.1508974264E+01  0.1846661918E-17 -0.5833799988E+00  0.6629582180E+15 -0.2922073489E+00  0.2011293876E-17 -0.7795540256E+00
  0.4698893521E-01  0.1000000000E+01  0.2570463033E+00  0.7205171135E+00 -0.4564069398E-17 -0.4871669724E+00  0.6629582180E+15 -0.6468115191E+00 -0.2776408000E-18 -0.1603714849E+00
  0.0000000000E+00  0.1000000000E+01  0.2570463033E+00 -0.2041467429E-01  0.5109351575E-19 -0.7549470328E-01  0.6629582180E+15 -0.2031598143E-01  0.4533775120E-20  0.1237044935E+00
  0.4000000000E+00  0.1000000000E+01  0.3530110648E+00  0.4067996921E+01 -0.1098788185E-18 -0.8035868412E+00  0.6629582181E+15  0.2247857104E+01  0.1527110781E-17 -0.2174224755E+01
  0.3530110648E+00  0.1000000000E+01  0.3530110648E+00  0.2669257017E+01  0.2369057440E-17 -0.1089163450E+01  0.6629582181E+15  0.9202404996E+00  0.2363186837E-17 -0.2156128631E+01
  0.2570463033E+00  0.1000000000E+01  0.3530110648E+00  0.1942123174E+01  0.5799155164E-17 -0.9796326539E+00  0.6629582180E+15  0.1544230210E+00  0.1612969877E-16 -0.1700581100E+01
  0.1429536967E+00  0.1000000000E+01  0.3530110648E+00  0.1674304159E+01  0.5494540133E-17 -0.9145807962E+00  0.6629582180E+15 -0.7135567207E+00  0.6124308758E-17 -0.1010096847E+01
  0.4698893521E-01  0.1000000000E+01  0.3530110648E+00  0.7020238639E+00  0.4326024575E-17 -0.5749382359E+00  0.6629582180E+15 -0.1017345252E+01  0.3899017725E-18 -0.1398894931E+00
  0.0000000000E+00  0.1000000000E+01  0.3530110648E+00 -0.2898076922E-01 -0.5741192171E-20 -0.2961925450E-01  0.6629582180E+15 -0.2453126593E-01 -0.1738142021E-19  0.1706793232E+00
  0.4000000000E+00  0.1000000000E+01  0.4000000000E+00  0.4573928971E+01  0.2033509887E-17 -0.1643335513E+01  0.6629582181E+15  0.2306379237E+01  0.2134266283E-17 -0.3489061875E+01
  0.3530110648E+00  0.1000000000E+01  0.4000000000E+00  0.2900002761E+01  0.2890328977E-17 -0.1106376809E+01  0.6629582181E+15  0.8770143389E+00  0.6982152789E-17 -0.2578071731E+01
  0.2570463033E+00  0.1000000000E+01  0.4000000000E+00  0.2037562222E+01 -0.4157155366E-18 -0.8973193528E+00  0.6629582180E+15  0.2008659779E-01 -0.5503581766E-17 -0.1747705712E+01
  0.1429536967E+00  0.1000000000E+01  0.4000000000E+00  0.1742980875E+01 -0.1882047257E-17 -0.8163905983E+00  0.6629582180E+15 -0.9466854688E+00 -0.2567279225E-17 -0.9687781028E+00
  0.4698893521E-01  0.1000000000E+01  0.4000000000E+00  0.6524539211E+00  0.6983342909E-18 -0.4548491211E+00  0.6629582180E+15 -0.1242719842E+01 -0.8181016329E-18 -0.7450119638E-01
  0.0000000000E+00  0.1000000000E+01  0.4000000000E+00 -0.2091394656E-01 -0.1132513763E-19  0.2493878234E-01  0.6629582180E+15 -0.1347166385E-01  0.2775569490E-19  0.1762567346E+00
ZONE I=6, J=6, K=1, F=POINT
  0.8000000000E+00  0.1000000000E+01  0.0000000000E+00  0.5013245652E+00  0.2684765574E-18 -0.1522855412E-01  0.6629582181E+15 -0.6098872999E-01  0.2096829749E-18 -0.1308206190E-01
  0.7530110648E+00  0.1000000000E+01  0.0000000000E+00  0.4548857936E+00  0.1084208894E-16  0.4367457790E-02  0.6629582181E+15 -0.9613463533E-01 -0.1515400535E-17  0.8839170646E-02
  0.6570463033E+00  0.1000000000E+01  0.0000000000E+00  0.3869444466E+00  0.4899760587E-17 -0.6237088013E-02  0.6629582181E+15 -0.1203857029E+00 -0.1751021422E-17  0.4223516243E-02
  0.5429536967E+00  0.1000000000E+01  0.0000000000E+00  0.3201052927E+00  0.8198320211E-17 -0.1245687423E-02  0.6629582181E+15 -0.1078644869E+00 -0.3019355255E-17  0.1281306332E-01
  0.4469889352E+00  0.1000000000E+01  0.0000000000E+00  0.2633281361E+00  0.8125055710E-17 -0.8762246072E-03  0.6629582181E+15 -0.9657205917E-01 -0.2966800283E-17  0.7967624963E-02
  0.4000000000E+00  0.1000000000E+01  0.0000000000E+00  0.2469636308E+00  0.1924657035E-18  0.1535651525E-01  0.6629582181E+15 -0.8720867193E-01  0.1056705528E-18  0.1369792611E-01
  0.8000000000E+00  0.1000000000E+01  0.4698893521E-01  0.2068644397E+01 -0.4159358170E-16  0.8231643690E+00  0.6629582181E+15  0.1371016450E+01 -0.3409640820E-16 -0.8582435155E+00
  0.7530110648E+00  0.1000000000E+01  0.4698893521E-01  0.2140105619E+01 -0.1058278485E-15  0.7697089617E+00  0.6629582181E+15  0.1412263469E+01 -0.6180213584E-16 -0.9291490806E+00
  0.6570463033E+00  0.1000000000E+01  0.4698893521E-01  0.1713168503E+01  0.1428373419E-16  0.9206528970E+00  0.6629582181E+15  0.9966263351E+00  0.2811399599E-17 -0.8059384445E+00
  0.5429536967E+00  0.1000000000E+01  0.4698893521E-01  0.1583460668E+01  0.2597694223E-16  0.8900833517E+00  0.6629582181E+15  0.9007632232E+00  0.1330544779E-16 -0.7725207936E+00
  0.4469889352E+00  0.1000000000E+01  0.4698893521E-01  0.1349063928E+01 -0.2905080337E-17  0.5023953298E+00  0.6629582181E+15  0.6819755524E+00  0.2346342461E-17 -0.8545572100E+00
  0.4000000000E+00  0.1000000000E+01  0.4698893521E-01  0.1366333908E+01 -0.3240597847E-17  0.1790005336E+00  0.6629582181E+15  0.7151812447E+00  0.5240757590E-18 -0.9615799769E+00
  0.8000000000E+00  0.1000000000E+01  0.1429536967E+00  0.3299980905E+01 -0.6653422398E-17  0.9851774271E+00  0.6629582181E+15  0.2714424160E+01 -0.2420024951E-16 -0.9591617864E+00
  0.7530110648E+00  0.1000000000E+01  0.1429536967E+00  0.3417801129E+01 -0.5326392986E-16  0.1040378286E+01  0.6629582181E+15  0.2718115857E+01 -0.3531773663E-16 -0.9344431346E+00
  0.6570463033E+00  0.1000000000E+01  0.1429536967E+00  0.2718378228E+01 -0.5927624356E-16  0.7243708293E+00  0.6629582181E+15  0.1916720218E+01 -0.2764366556E-16 -0.1127134206E+01
  0.5429536967E+00  0.1000000000E+01  0.1429536967E+00  0.2504427424E+01  0.5197343550E-16  0.4826823381E+00  0.6629582181E+15  0.1660023284E+01  0.2667051690E-16 -0.1138865927E+01
  0.4469889352E+00  0.1000000000E+01  0.1429536967E+00  0.2084355386E+01 -0.3026138925E-17  0.3133184503E+00  0.6629582181E+15  0.1143515544E+01  0.1145940639E-16 -0.1260186113E+01
  0.4000000000E+00  0.1000000000E+01  0.1429536967E+00  0.2067417739E+01  0.2984048200E-16  0.2838552938E+00  0.6629582181E+15  0.1029670510E+01  0.1500566414E-16 -0.1236055828E+01
  0.8000000000E+00  0.1000000000E+01  0.2570463033E+00  0.4883192948E+01 -0.9068418557E-17  0.3797865169E+00  0.6629582181E+15  0.4337309707E+01 -0.9120600512E-17 -0.1463336480E+01
  0.7530110648E+00  0.1000000000E+01  0.2570463033E+00  0.4594090043E+01  0.2631237596E-17  0.5170575330E+00  0.6629582181E+15  0.3798738906E+01 -0.1877415034E-16 -0.1263520210E+01
  0.6570463033E+00  0.1000000000E+01  0.2570463033E+00  0.3734770454E+01 -0.4700790789E-16  0.7461510794E+00  0.6629582181E+15  0.2672212250E+01 -0.1722715134E-16 -0.9079070139E+00
  0.5429536967E+00  0.1000000000E+01  0.2570463033E+00  0.3232256446E+01  0.3675278094E-16  0.1201417677E+01  0.6629582181E+15  0.2252703662E+01  0.2043616095E-16 -0.3355174374E+00
  0.4469889352E+00  0.1000000000E+01  0.2570463033E+00  0.2979524701E+01  0.1603553233E-16  0.3595750290E+00  0.6629582181E+15  0.1995948822E+01  0.8865477445E-18 -0.8841063466E+00
  0.4000000000E+00  0.1000000000E+01  0.2570463033E+00  0.2818374873E+01  0.6611630387E-17 -0.9090945878E-01  0.6629582181E+15  0.1586029908E+01  0.5460615428E-17 -0.1165063892E+01
  0.8000000000E+00  0.1000000000E+01  0.3530110648E+00  0.5600325488E+01 -0.3076101733E-17 -0.5940525714E+00  0.6629582181E+15  0.5045770334E+01 -0.8261335010E-18 -0.3389216184E+01
  0.7530110648E+00  0.1000000000E+01  0.3530110648E+00  0.5167707017E+01  0.1073752017E-15 -0.5114161456E+00  0.6629582181E+15  0.4222477556E+01  0.5262576149E-16 -0.3288320650E+01
  0.6570463033E+00  0.1000000000E+01  0.3530110648E+00  0.3269977784E+01 -0.5403253109E-16  0.2618447626E+00  0.6629582181E+15  0.2534655426E+01  0.1717287040E-16 -0.2948078066E+01
  0.5429536967E+00  0.1000000000E+01  0.3530110648E+00  0.3980578609E+01 -0.1483334459E-15  0.1429973186E+01  0.6629582181E+15  0.2667397193E+01 -0.3433982442E-16 -0.2351166449E+01
  0.4469889352E+00  0.1000000000E+01  0.3530110648E+00  0.5153128751E+01  0.3707373411E-17  0.3705205396E-01  0.6629582181E+15  0.2977632564E+01  0.1772049212E-16 -0.2183918766E+01
  0.4000000000E+00  0.1000000000E+01  0.3530110648E+00  0.4095306796E+01 -0.5146201884E-18 -0.8024581528E+00  0.6629582181E+15  0.2280454616E+01  0.1116827043E-17 -0.2174424665E+01
  0.8000000000E+00  0.1000000000E+01  0.4000000000E+00  0.5887228318E+01 -0.1341838527E-16 -0.1514759834E+01  0.6629582182E+15  0.5574330234E+01 -0.1367479967E-16 -0.4469182936E+01
  0.7530110648E+00  0.1000000000E+01  0.4000000000E+00  0.5362980838E+01  0.3795285553E-17 -0.1680742099E+01  0.6629582181E+15  0.4452306887E+01  0.9521724146E-17 -0.4813278107E+01
  0.6570463033E+00  0.1000000000E+01  0.4000000000E+00  0.2969648352E+01  0.6412046418E-17 -0.1796040110E+01  0.6629582181E+15  0.2848315487E+01 -0.1611132679E-16 -0.5880780607E+01
  0.5429536967E+00  0.1000000000E+01  0.4000000000E+00  0.4174857897E+01  0.7522148483E-16 -0.9988525957E+00  0.6629582181E+15  0.2590706404E+01 -0.1075501624E-16 -0.6242973843E+01
  0.4469889352E+00  0.1000000000E+01  0.4000000000E+00  0.6232577307E+01  0.1112205796E-15 -0.1672031781E+01  0.6629582181E+15  0.2731580761E+01  0.5038434038E-16 -0.4669087180E+01
  0.4000000000E+00  0.1000000000E+01  0.4000000000E+00  0.4568745212E+01  0.1467319769E-17 -0.1637534812E+01  0.6629582181E+15  0.2310136777E+01  0.1796178018E-17 -0.3486603027E+01
ZONE I=6, J=6, K=1, F=POINT
  0.1200000000E+01  0.1000000000E+01  0.0000000000E+00  0.6427806043E+00  0.4298079147E-18  0.3485715149E-01  0.6629582182E+15  0.7604702967E-01  0.3908262036E-18  0.3016298596E-01
  0.1153011065E+01  0.1000000000E+01  0.0000000000E+00  0.6593871249E+00  0.3117603581E-16 -0.1361052461E-01  0.6629582182E+15  0.8309899637E-01  0.5600746302E-17 -0.1622618229E-01
  0.1057046303E+01  0.1000000000E+01  0.0000000000E+00  0.6275473944E+00  0.1613766083E-16  0.2670554642E-02  0.6629582181E+15  0.4077491713E-01  0.9325148462E-18  0.2050146242E-02
  0.9429536967E+00  0.1000000000E+01  0.0000000000E+00  0.5652960766E+00  0.5629647200E-18 -0.1336723868E-01  0.6629582181E+15 -0.2011587738E-01  0.5210686887E-18 -0.1198281189E-01
  0.8469889352E+00  0.1000000000E+01  0.0000000000E+00  0.5148598300E+00  0.1474220221E-19  0.2683267159E-02  0.6629582181E+15 -0.5720324912E-01  0.5974242571E-19  0.5502745945E-02
  0.8000000000E+00  0.1000000000E+01  0.0000000000E+00  0.4506377273E+00  0.3029130917E-18 -0.1496728463E-01  0.6629582181E+15 -0.1101960078E+00  0.2163401437E-18 -0.1268643547E-01
  0.1200000000E+01  0.1000000000E+01  0.4698893521E-01  0.4255731015E+01 -0.1246794315E-15  0.1126075426E+01  0.6629582182E+15  0.3938717308E+01 -0.1089756765E-15  0.3870593740E+00
  0.1153011065E+01  0.1000000000E+01  0.4698893521E-01  0.3566428033E+01 -0.8527697618E-16  0.1213676395E+01  0.6629582182E+15  0.3250145116E+01 -0.7362004283E-16  0.3550330266E+00
  0.1057046303E+01  0.1000000000E+01  0.4698893521E-01  0.3396986588E+01  0.1035911018E-16  0.1063420078E+01  0.6629582181E+15  0.2963211984E+01  0.3215283523E-17 -0.1046717271E+00
  0.9429536967E+00  0.1000000000E+01  0.4698893521E-01  0.2699914743E+01 -0.6194240682E-16  0.9422152691E+00  0.6629582181E+15  0.2138920274E+01 -0.4716780426E-16 -0.4853322905E+00
  0.8469889352E+00  0.1000000000E+01  0.4698893521E-01  0.2482335587E+01 -0.9975193757E-16  0.7977736467E+00  0.6629582181E+15  0.1852266772E+01 -0.7017306902E-16 -0.8216753568E+00
  0.8000000000E+00  0.1000000000E+01  0.4698893521E-01  0.2003718910E+01 -0.4113338929E-16  0.8248080452E+00  0.6629582181E+15  0.1307890474E+01 -0.3368066113E-16 -0.8563024042E+00
  0.1200000000E+01  0.1000000000E+01  0.1429536967E+00  0.7829737974E+01 -0.1140153229E-15  0.1320055903E+01  0.6629582182E+15  0.7729698825E+01 -0.1108373011E-15  0.4149480976E+00
  0.1153011065E+01  0.1000000000E+01  0.1429536967E+00  0.6405294332E+01  0.2613127547E-16  0.1039710439E+01  0.6629582182E+15  0.6423796461E+01  0.3249379743E-16  0.8907900241E-02
  0.1057046303E+01  0.1000000000E+01  0.1429536967E+00  0.5903812206E+01 -0.4370525608E-16  0.1119715726E+01  0.6629582182E+15  0.5815232818E+01 -0.4407458566E-16 -0.2300355962E+00
  0.9429536967E+00  0.1000000000E+01  0.1429536967E+00  0.4549201661E+01 -0.3469050287E-16  0.8883629811E+00  0.6629582181E+15  0.4234740434E+01 -0.3587831621E-16 -0.8300216214E+00
  0.8469889352E+00  0.1000000000E+01  0.1429536967E+00  0.4159392355E+01 -0.9945307520E-16  0.1062555645E+01  0.6629582181E+15  0.3697993316E+01 -0.7936996293E-16 -0.8298913721E+00
  0.8000000000E+00  0.1000000000E+01  0.1429536967E+00  0.3217926367E+01 -0.7726722785E-17  0.9822802535E+00  0.6629582181E+15  0.2627802774E+01 -0.2564933170E-16 -0.9612582222E+00
  0.1200000000E+01  0.1000000000E+01  0.2570463033E+00  0.8673387919E+01 -0.3355942066E-16  0.8003436121E-01  0.6629582182E+15  0.8855031243E+01 -0.3441843998E-16 -0.8386535531E+00
  0.1153011065E+01  0.1000000000E+01  0.2570463033E+00  0.8248918256E+01 -0.2438816023E-15 -0.2227867442E+00  0.6629582182E+15  0.8545401530E+01 -0.2883061572E-15 -0.1267014707E+01
  0.1057046303E+01  0.1000000000E+01  0.2570463033E+00  0.7314362518E+01 -0.3620913470E-16 -0.8571143286E-01  0.6629582182E+15  0.7572238364E+01 -0.3605384069E-16 -0.1384910103E+01
  0.9429536967E+00  0.1000000000E+01  0.2570463033E+00  0.6118033819E+01 -0.1391016952E-15 -0.3626823064E+00  0.6629582182E+15  0.6085352118E+01 -0.1362109649E-15 -0.1973558488E+01
  0.8469889352E+00  0.1000000000E+01  0.2570463033E+00  0.5376993168E+01  0.6992826832E-16  0.3015765045E+00  0.6629582181E+15  0.5015407490E+01  0.3371936417E-16 -0.1518912497E+01
  0.8000000000E+00  0.1000000000E+01  0.2570463033E+00  0.4841097943E+01 -0.1052636076E-16  0.3762880764E+00  0.6629582181E+15  0.4294700665E+01 -0.1077971893E-16 -0.1466076693E+01
  0.1200000000E+01  0.1000000000E+01  0.3530110648E+00  0.9420717823E+01 -0.5729152658E-17 -0.9691744760E+00  0.6629582182E+15  0.9867996650E+01 -0.6657948048E-17 -0.2134697311E+01
  0.1153011065E+01  0.1000000000E+01  0.3530110648E+00  0.8871950580E+01 -0.4694043904E-16 -0.1020977067E+01  0.6629582182E+15  0.9497229399E+01 -0.5569222809E-16 -0.2350081087E+01
  0.1057046303E+01  0.1000000000E+01  0.3530110648E+00  0.8225031113E+01 -0.5941226892E-16 -0.1052501167E+01  0.6629582182E+15  0.8767661294E+01 -0.3581381136E-16 -0.2740715313E+01
  0.9429536967E+00  0.1000000000E+01  0.3530110648E+00  0.6785495199E+01 -0.1081383836E-15 -0.1297352507E+01  0.6629582182E+15  0.7088721533E+01 -0.9964956501E-16 -0.3418325667E+01
  0.8469889352E+00  0.1000000000E+01  0.3530110648E+00  0.5872201178E+01  0.3275571344E-16 -0.7623905874E+00  0.6629582182E+15  0.5792115038E+01  0.5309225853E-16 -0.3376599851E+01
  0.8000000000E+00  0.1000000000E+01  0.3530110648E+00  0.5541338114E+01 -0.3338349439E-17 -0.5950384329E+00  0.6629582181E+15  0.4994188851E+01 -0.1484295808E-17 -0.3390280243E+01
  0.1200000000E+01  0.1000000000E+01  0.4000000000E+00  0.9396114068E+01 -0.8192617480E-17 -0.1459991359E+01  0.6629582182E+15  0.9958391165E+01 -0.9211056620E-17 -0.2455682014E+01
  0.1153011065E+01  0.1000000000E+01  0.4000000000E+00  0.9178440714E+01  0.9321041858E-17 -0.1756039857E+01  0.6629582182E+15  0.9959648497E+01  0.3630515885E-16 -0.2853646590E+01
  0.1057046303E+01  0.1000000000E+01  0.4000000000E+00  0.8465224013E+01 -0.1174377911E-16 -0.1651984413E+01  0.6629582182E+15  0.9185981990E+01 -0.9425575151E-18 -0.3054602026E+01
  0.9429536967E+00  0.1000000000E+01  0.4000000000E+00  0.7106401626E+01 -0.7375547723E-16 -0.1797963297E+01  0.6629582182E+15  0.7653526868E+01 -0.9359950173E-16 -0.3777343980E+01
  0.8469889352E+00  0.1000000000E+01  0.4000000000E+00  0.5998014325E+01 -0.7429363361E-17 -0.1606364829E+01  0.6629582182E+15  0.6204584718E+01 -0.7724609716E-18 -0.4195952615E+01
  0.8000000000E+00  0.1000000000E+01  0.4000000000E+00  0.5885451028E+01 -0.1355630935E-16 -0.1516098694E+01  0.6629582182E+15  0.5572876568E+01 -0.1393947102E-16 -0.4471627464E+01
ZONE I=6, J=6, K=1, F=POINT
  0.1600000000E+01  0.1000000000E+01  0.0000000000E+00  0.9460957334E+00 -0.5125030382E-18 -0.1036334310E+00  0.6629582182E+15  0.5021393770E+00 -0.2335561533E-18 -0.1044109392E+00
  0.1553011065E+01  0.1000000000E+01  0.0000000000E+00  0.8103227738E+00 -0.4027207420E-16  0.3940553070E-01  0.6629582182E+15  0.3577390809E+00 -0.1901325767E-16  0.3771094153E-01
  0.1457046303E+01  0.1000000000E+01  0.0000000000E+00  0.7525228120E+00 -0.1757694827E-16 -0.9732079990E-02  0.6629582182E+15  0.2683481212E+00 -0.5995671367E-17 -0.1409619928E-01
  0.1342953697E+01  0.1000000000E+01  0.0000000000E+00  0.7245604056E+00  0.4037860247E-16  0.2503787140E-01  0.6629582182E+15  0.2015557882E+00  0.1146369698E-16  0.2076758530E-01
  0.1246988935E+01  0.1000000000E+01  0.0000000000E+00  0.6815704576E+00  0.2537830449E-17 -0.1230508251E-01  0.6629582182E+15  0.1307090858E+00 -0.7158741954E-18 -0.1682234016E-01
  0.1200000000E+01  0.1000000000E+01  0.0000000000E+00  0.7335789846E+00  0.6099559155E-18  0.3489891648E-01  0.6629582182E+15  0.1680725284E+00  0.4842590855E-18  0.3011143507E-01
  0.1600000000E+01  0.1000000000E+01  0.4698893521E-01  0.4671322234E+01 -0.1296400704E-15  0.1749967630E+01  0.6629582182E+15  0.4853752724E+01 -0.1335055439E-15  0.1742483145E+00
  0.1553011065E+01  0.1000000000E+01  0.4698893521E-01  0.5123438962E+01 -0.7494317290E-19  0.1258549882E+01  0.6629582182E+15  0.5188937803E+01  0.2692091406E-17 -0.1650069763E+00
  0.1457046303E+01  0.1000000000E+01  0.4698893521E-01  0.4330512774E+01 -0.5839757690E-16  0.1558225179E+01  0.6629582182E+15  0.4295249739E+01 -0.5829493588E-16  0.5124513981E+00
  0.1342953697E+01  0.1000000000E+01  0.4698893521E-01  0.4508995196E+01  0.4114621299E-16  0.1397020012E+01  0.6629582182E+15  0.4328053449E+01  0.3910508513E-16  0.5162352928E+00
  0.1246988935E+01  0.1000000000E+01  0.4698893521E-01  0.3931729968E+01  0.6181256505E-16  0.1329095297E+01  0.6629582182E+15  0.3607173335E+01  0.4754546516E-16  0.5802052857E+00
  0.1200000000E+01  0.1000000000E+01  0.4698893521E-01  0.4358446793E+01 -0.1297753789E-15  0.1120935267E+01  0.6629582182E+15  0.4037233755E+01 -0.1138512807E-15  0.3816044502E+00
  0.1600000000E+01  0.1000000000E+01  0.1429536967E+00  0.8357448035E+01 -0.1796193149E-15  0.7599211046E+00  0.6629582183E+15  0.8612774011E+01 -0.1688138191E-15  0.4110248035E-01
  0.1553011065E+01  0.1000000000E+01  0.1429536967E+00  0.9847052002E+01 -0.2237035707E-15  0.1600830917E+01  0.6629582183E+15  0.9691124569E+01 -0.2119513569E-15  0.7998523185E+00
  0.1457046303E+01  0.1000000000E+01  0.1429536967E+00  0.8290424193E+01  0.1278390796E-15  0.1480840242E+01  0.6629582182E+15  0.8074536316E+01  0.1130709630E-15  0.6710133403E+00
  0.1342953697E+01  0.1000000000E+01  0.1429536967E+00  0.8613940420E+01  0.1543014971E-15  0.1903597285E+01  0.6629582182E+15  0.8370956246E+01  0.1448194165E-15  0.1127147819E+01
  0.1246988935E+01  0.1000000000E+01  0.1429536967E+00  0.7137845075E+01 -0.1302005860E-15  0.1220425500E+01  0.6629582182E+15  0.6793486928E+01 -0.9846348248E-16  0.3994080182E+00
  0.1200000000E+01  0.1000000000E+01  0.1429536967E+00  0.8011729087E+01 -0.1173237520E-15  0.1329064342E+01  0.6629582182E+15  0.7892798660E+01 -0.1134072555E-15  0.4208435931E+00
  0.1600000000E+01  0.1000000000E+01  0.2570463033E+00  0.1361133734E+02  0.7802316170E-16 -0.9495966913E+00  0.6629582183E+15  0.1432248695E+02  0.8023180771E-16 -0.8754706538E+00
  0.1553011065E+01  0.1000000000E+01  0.2570463033E+00  0.1267301405E+02  0.1298308997E-15  0.1047208234E+00  0.6629582183E+15  0.1293343857E+02  0.1285605390E-15 -0.9507439582E-02
  0.1457046303E+01  0.1000000000E+01  0.2570463033E+00  0.1182008115E+02  0.2659606784E-15 -0.5270901622E-01  0.6629582183E+15  0.1175326236E+02  0.2621307674E-15 -0.4878091066E+00
  0.1342953697E+01  0.1000000000E+01  0.2570463033E+00  0.1039099544E+02  0.2129116783E-15  0.8294693979E+00  0.6629582182E+15  0.1023171088E+02  0.2039507846E-15  0.2455451577E+00
  0.1246988935E+01  0.1000000000E+01  0.2570463033E+00  0.9026874958E+01  0.1259745699E-15 -0.8311405461E-01  0.6629582182E+15  0.8959214542E+01  0.1113795597E-15 -0.8645615965E+00
  0.1200000000E+01  0.1000000000E+01  0.2570463033E+00  0.8713266409E+01 -0.3497801388E-16  0.9143769695E-01  0.6629582182E+15  0.8900303608E+01 -0.3712962073E-16 -0.8308540229E+00
  0.1600000000E+01  0.1000000000E+01  0.3530110648E+00  0.1253913045E+02  0.1601708353E-15 -0.1198966642E+01  0.6629582183E+15  0.1345495034E+02  0.1584893460E-15 -0.1807677907E+01
  0.1553011065E+01  0.1000000000E+01  0.3530110648E+00  0.1292803990E+02  0.1808172555E-15 -0.1206408046E+01  0.6629582183E+15  0.1341422313E+02  0.1836910205E-15 -0.1845086556E+01
  0.1457046303E+01  0.1000000000E+01  0.3530110648E+00  0.1211197503E+02  0.2436866781E-15 -0.9102656795E+00  0.6629582183E+15  0.1220133639E+02  0.2585593019E-15 -0.1612061973E+01
  0.1342953697E+01  0.1000000000E+01  0.3530110648E+00  0.1099967108E+02  0.1409304224E-15 -0.3568756914E+00  0.6629582183E+15  0.1098287042E+02  0.1483649068E-15 -0.1241536866E+01
  0.1246988935E+01  0.1000000000E+01  0.3530110648E+00  0.9591801428E+01 -0.5514869692E-16 -0.8639451140E+00  0.6629582182E+15  0.9752610063E+01 -0.4937230821E-16 -0.1927255897E+01
  0.1200000000E+01  0.1000000000E+01  0.3530110648E+00  0.9503899621E+01 -0.5031626264E-17 -0.9682889427E+00  0.6629582182E+15  0.9948537245E+01 -0.6489532276E-17 -0.2134140982E+01
  0.1600000000E+01  0.1000000000E+01  0.4000000000E+00  0.1299055998E+02  0.1619837085E-15 -0.1830884136E+01  0.6629582183E+15  0.1397145285E+02  0.1601090358E-15 -0.1904498107E+01
  0.1553011065E+01  0.1000000000E+01  0.4000000000E+00  0.1245849458E+02  0.1360287815E-15 -0.1177158160E+01  0.6629582183E+15  0.1297152608E+02  0.1139006934E-15 -0.1316623717E+01
  0.1457046303E+01  0.1000000000E+01  0.4000000000E+00  0.1213159749E+02  0.1350768602E-15 -0.1396261630E+01  0.6629582183E+15  0.1228463957E+02  0.1276068558E-15 -0.1686039672E+01
  0.1342953697E+01  0.1000000000E+01  0.4000000000E+00  0.1092813918E+02  0.2260493802E-15 -0.7515420152E+00  0.6629582183E+15  0.1102557683E+02  0.2191928420E-15 -0.1341821335E+01
  0.1246988935E+01  0.1000000000E+01  0.4000000000E+00  0.9965529598E+01 -0.2928874716E-16 -0.1511915177E+01  0.6629582182E+15  0.1022820261E+02 -0.1674544745E-16 -0.2393518946E+01
  0.1200000000E+01  0.1000000000E+01  0.4000000000E+00  0.9373576695E+01 -0.6909379525E-17 -0.1446597498E+01  0.6629582182E+15  0.9932692827E+01 -0.8056189971E-17 -0.2445598280E+01
ZONE I=6, J=6, K=1, F=POINT
  0.2000000000E+01  0.1000000000E+01  0.0000000000E+00  0.2489450962E+01  0.2387617460E-18  0.2129901219E+02  0.6629582183E+15  0.2516068555E+01  0.2485586784E-18  0.2223942201E+02
  0.1953011065E+01  0.1000000000E+01  0.0000000000E+00  0.2134516679E+01 -0.5599632914E-16 -0.4058765664E-01  0.6629582183E+15  0.1883300722E+01 -0.4804642517E-16 -0.4428710598E-01
  0.1857046303E+01  0.1000000000E+01  0.0000000000E+00  0.7024972771E+00  0.3822500523E-16  0.1336417507E+00  0.6629582183E+15  0.3341844469E+00  0.1585878457E-16  0.1180314124E+00
  0.1742953697E+01  0.1000000000E+01  0.0000000000E+00  0.1030100241E+01  0.3007879434E-17 -0.3011782727E-01  0.6629582183E+15  0.6262912909E+00  0.2071572770E-17 -0.3470722520E-01
  0.1646988935E+01  0.1000000000E+01  0.0000000000E+00  0.8496187560E+00 -0.2331958487E-17  0.4695156229E-01  0.6629582182E+15  0.3558350022E+00 -0.4246102949E-18  0.4325464554E-01
  0.1600000000E+01  0.1000000000E+01  0.0000000000E+00  0.8803704668E+00 -0.7265247749E-18 -0.1162196678E+00  0.6629582182E+15  0.4402719199E+00 -0.4311364705E-18 -0.1152483077E+00
  0.2000000000E+01  0.1000000000E+01  0.4698893521E-01  0.8717186080E-01  0.7946354419E-18  0.4934963299E+02  0.6629582183E+15  0.4941525926E-01  0.1241025983E-17  0.4924360035E+02
  0.1953011065E+01  0.1000000000E+01  0.4698893521E-01  0.1226701177E+02  0.1448020931E-15  0.2877825022E+01  0.6629582183E+15  0.1326566227E+02  0.1539443492E-15  0.3727626149E+01
  0.1857046303E+01  0.1000000000E+01  0.4698893521E-01  0.1315557771E+02  0.4007973153E-15 -0.2933475125E+00  0.6629582183E+15  0.1422096805E+02  0.4747168880E-15  0.3519847062E-01
  0.1742953697E+01  0.1000000000E+01  0.4698893521E-01  0.7271587238E+01 -0.6339763912E-16  0.1299603872E+01  0.6629582183E+15  0.8040092541E+01 -0.6563270032E-16  0.6924767808E+00
  0.1646988935E+01  0.1000000000E+01  0.4698893521E-01  0.6451232556E+01 -0.2388126376E-15  0.1081392661E+01  0.6629582183E+15  0.7078971009E+01 -0.2701317113E-15 -0.3417681611E+00
  0.1600000000E+01  0.1000000000E+01  0.4698893521E-01  0.4489377447E+01 -0.1260553617E-15  0.1734162617E+01  0.6629582182E+15  0.4678855082E+01 -0.1292933150E-15  0.1553516834E+00
  0.2000000000E+01  0.1000000000E+01  0.1429536967E+00 -0.2994532102E+00  0.2477673947E-17  0.5158842079E+02  0.6629582183E+15 -0.2923297431E+00 -0.1479747798E-18  0.5108873651E+02
  0.1953011065E+01  0.1000000000E+01  0.1429536967E+00  0.4118261736E+01 -0.3958874386E-15  0.1813501631E+02  0.6629582183E+15  0.5153340999E+01 -0.3006398642E-15  0.1904574297E+02
  0.1857046303E+01  0.1000000000E+01  0.1429536967E+00  0.1382720670E+02 -0.3429384952E-15 -0.1884747286E+01  0.6629582183E+15  0.1555624118E+02 -0.4455065081E-15 -0.1127768431E+01
  0.1742953697E+01  0.1000000000E+01  0.1429536967E+00  0.1132645164E+02  0.8149634996E-16 -0.1681700777E+01  0.6629582183E+15  0.1302967241E+02  0.2459753829E-15 -0.1751411454E+01
  0.1646988935E+01  0.1000000000E+01  0.1429536967E+00  0.1177838347E+02 -0.1881525019E-15  0.5233244212E+00  0.6629582183E+15  0.1292955760E+02 -0.1777748152E-15 -0.6139996791E-01
  0.1600000000E+01  0.1000000000E+01  0.1429536967E+00  0.7973369231E+01 -0.1950497226E-15  0.7543360261E+00  0.6629582183E+15  0.8268985550E+01 -0.1837993346E-15  0.3590542451E-01
  0.2000000000E+01  0.1000000000E+01  0.2570463033E+00  0.3203323769E-01  0.1349582001E-17  0.5087574588E+02  0.6629582183E+15  0.1783783787E-01  0.1408172218E-17  0.5036763509E+02