TITLE = "Generated from ../MESH/Convergence_0000000000.hmesh and Convergence_0000009300.hsol"
VARIABLES = "x","y","z","veloT_x","veloT_y","veloT_z","slr_4","velo_x","velo_y","velo_z"
ZONE I=6, J=6, K=1, F=POINT
  0.4000000000E+00  0.1000000000E+01  0.0000000000E+00  0.1012629035E+00  0.1213765819E-18  0.7650494244E-02  0.4568773466E+14 -0.9805503007E-01  0.5292342518E-19  0.7633982646E-02
  0.3530110648E+00  0.1000000000E+01  0.0000000000E+00  0.1057022728E+00  0.2658588457E-19 -0.1866521023E-02  0.4568773465E+14 -0.9997222883E-01  0.6332060256E-19  0.1718733695E-03
  0.2570463033E+00  0.1000000000E+01  0.0000000000E+00  0.7934013654E-01  0.8821914681E-20 -0.3431989001E-03  0.4568773465E+14 -0.8494834713E-01  0.2726667965E-19  0.4448616550E-02
  0.1429536967E+00  0.1000000000E+01  0.0000000000E+00  0.7575099690E-01 -0.2228678819E-20  0.1111214297E-02  0.4568773465E+14 -0.7773661340E-01  0.5742592739E-20  0.4593474546E-03
  0.4698893521E-01  0.1000000000E+01  0.0000000000E+00  0.6721996553E-01  0.1446422205E-19 -0.1113805479E-01  0.4568773464E+14 -0.5091263101E-01  0.6451009102E-20  0.3855866570E-02
  0.0000000000E+00  0.1000000000E+01  0.0000000000E+00  0.3339104992E-02 -0.1987905847E-21 -0.8680069093E-02  0.4568773464E+14 -0.9796809192E-02 -0.6309505017E-22  0.4672829196E-02
  0.4000000000E+00  0.1000000000E+01  0.4698893521E-01  0.8663336155E+00  0.5067967952E-19 -0.1638345107E+00  0.4568773466E+14  0.4119860683E+00  0.2651140099E-17 -0.8191978885E+00
  0.3530110648E+00  0.1000000000E+01  0.4698893521E-01  0.6660475861E+00 -0.2258320705E-17 -0.2036210317E+00  0.4568773465E+14  0.2053262269E+00  0.3269823189E-17 -0.7259708304E+00
  0.2570463033E+00  0.1000000000E+01  0.4698893521E-01  0.4970331874E+00  0.5204716952E-18 -0.2563488811E+00  0.4568773465E+14  0.1205666516E+00  0.5467514898E-18 -0.5717256997E+00
  0.1429536967E+00  0.1000000000E+01  0.4698893521E-01  0.3799315749E+00  0.1279245812E-17 -0.3264487162E+00  0.4568773464E+14  0.1485264807E-01  0.2450903799E-18 -0.3757978231E+00
  0.4698893521E-01  0.1000000000E+01  0.4698893521E-01  0.2775366273E+00  0.5427528122E-18 -0.3227123243E+00  0.4568773464E+14  0.1562166186E-01  0.2530702884E-18 -0.1522056794E+00
  0.0000000000E+00  0.1000000000E+01  0.4698893521E-01 -0.5550434960E-02 -0.4169569010E-20 -0.6371635539E-01  0.4568773464E+14 -0.1919720807E-01  0.4239043865E-21  0.5167309612E-01
  0.4000000000E+00  0.1000000000E+01  0.1429536967E+00  0.1407199992E+01  0.2050953005E-16 -0.1930844305E+00  0.4568773465E+14  0.6903127035E+00  0.1046651118E-16 -0.1123458392E+01
  0.3530110648E+00  0.1000000000E+01  0.1429536967E+00  0.9577889532E+00  0.6808510444E-17 -0.2517155417E+00  0.4568773465E+14  0.2310675354E+00  0.1289737569E-16 -0.1081725774E+01
  0.2570463033E+00  0.1000000000E+01  0.1429536967E+00  0.7466377285E+00  0.3225135558E-17 -0.2691678252E+00  0.4568773465E+14  0.9254825242E-01  0.2698674404E-17 -0.8200393791E+00
  0.1429536967E+00  0.1000000000E+01  0.1429536967E+00  0.4964901122E+00  0.1144118942E-17 -0.4269182982E+00  0.4568773464E+14 -0.2022225689E+00  0.1047016953E-17 -0.5781788238E+00
  0.4698893521E-01  0.1000000000E+01  0.1429536967E+00  0.2082535136E+00  0.1906028139E-17 -0.3355707774E+00  0.4568773464E+14 -0.2728302374E+00  0.1068255962E-17 -0.1439074351E+00
  0.0000000000E+00  0.1000000000E+01  0.1429536967E+00 -0.2847057015E-01 -0.2419423038E-19 -0.6391890094E-01  0.4568773464E+14 -0.2441598823E-01 -0.2509486534E-20  0.6798534412E-01
  0.4000000000E+00  0.1000000000E+01  0.2570463033E+00  0.1923253313E+01  0.5874200285E-17 -0.4208843317E+00  0.4568773466E+14  0.9917766063E+00  0.5074251598E-17 -0.1187308244E+01
  0.3530110648E+00  0.1000000000E+01  0.2570463033E+00  0.1387330951E+01  0.2850039740E-17 -0.6145436535E+00  0.4568773465E+14  0.4105135886E+00 -0.6294585145E-17 -0.1248679952E+01
  0.2570463033E+00  0.1000000000E+01  0.2570463033E+00  0.1023621691E+01  0.2943303961E-17 -0.5572663676E+00  0.4568773464E+14  0.5875536755E-01  0.3030133593E-17 -0.1000843624E+01
  0.1429536967E+00  0.1000000000E+01  0.2570463033E+00  0.6493088087E+00  0.2005892142E-17 -0.5348800013E+00  0.4568773464E+14 -0.4640261412E+00  0.2107612016E-17 -0.6471311842E+00
  0.4698893521E-01  0.1000000000E+01  0.2570463033E+00  0.1868821929E+00 -0.1615975669E-17 -0.2691651234E+00  0.4568773463E+14 -0.5809242968E+00  0.8125898054E-18 -0.8386496906E-01
  0.0000000000E+00  0.1000000000E+01  0.2570463033E+00 -0.1798088143E-01  0.2105640935E-19 -0.2190595833E-01  0.4568773463E+14 -0.1664621858E-01 -0.9617030885E-20  0.7598098829E-01
  0.4000000000E+00  0.1000000000E+01  0.3530110648E+00  0.2744937763E+01  0.2368478943E-17 -0.1165969530E+01  0.4568773465E+14  0.1252349415E+01  0.3623336935E-17 -0.2016401137E+01
  0.3530110648E+00  0.1000000000E+01  0.3530110648E+00  0.1715530268E+01  0.3200913462E-17 -0.1289531655E+01  0.4568773465E+14  0.4767021697E+00  0.3250474202E-17 -0.1915179686E+01
  0.2570463033E+00  0.1000000000E+01  0.3530110648E+00  0.1055832565E+01  0.7555861884E-17 -0.1051480271E+01  0.4568773464E+14 -0.1118522429E+00  0.1332284261E-16 -0.1455693046E+01
  0.1429536967E+00  0.1000000000E+01  0.3530110648E+00  0.6280873803E+00  0.4674879656E-17 -0.7954023429E+00  0.4568773464E+14 -0.8170226055E+00  0.4989870707E-17 -0.8459817309E+00
  0.4698893521E-01  0.1000000000E+01  0.3530110648E+00  0.1041804825E+00  0.2273401069E-17 -0.3229615673E+00  0.4568773463E+14 -0.8466121510E+00  0.1928298841E-18 -0.9299982621E-01
  0.0000000000E+00  0.1000000000E+01  0.3530110648E+00 -0.2174634714E-01 -0.3452473732E-20  0.9415692735E-02  0.4568773463E+14 -0.1804038337E-01 -0.1280217504E-19  0.9694584900E-01
  0.4000000000E+00  0.1000000000E+01  0.4000000000E+00  0.2905515917E+01  0.4285413993E-17 -0.1919037559E+01  0.4568773465E+14  0.1153705962E+01  0.4144387300E-17 -0.2864399222E+01
  0.3530110648E+00  0.1000000000E+01  0.4000000000E+00  0.1778925303E+01  0.4560283494E-17 -0.1519928991E+01  0.4568773465E+14  0.3915289918E+00  0.7255562569E-17 -0.2334970645E+01
  0.2570463033E+00  0.1000000000E+01  0.4000000000E+00  0.1051348907E+01  0.1863048958E-18 -0.1081733562E+01  0.4568773464E+14 -0.2464841708E+00 -0.3189561800E-17 -0.1598660130E+01
  0.1429536967E+00  0.1000000000E+01  0.4000000000E+00  0.5997923052E+00 -0.9185132964E-18 -0.7802325205E+00  0.4568773463E+14 -0.1013199143E+01 -0.1347255078E-17 -0.8940043057E+00
  0.4698893521E-01  0.1000000000E+01  0.4000000000E+00  0.3226428399E-01  0.5107010422E-18 -0.2615568209E+00  0.4568773463E+14 -0.1007109101E+01 -0.1673232437E-18 -0.8351569835E-01
  0.0000000000E+00  0.1000000000E+01  0.4000000000E+00 -0.1274981949E-01 -0.1731059588E-20  0.3891671668E-01  0.4568773463E+14 -0.9310604046E-02  0.2124647496E-19  0.9328260652E-01
ZONE I=6, J=6, K=1, F=POINT
  0.8000000000E+00  0.1000000000E+01  0.0000000000E+00  0.2799037971E+00  0.1381490989E-18 -0.1414687474E-01  0.4568773469E+14 -0.9252583674E-01  0.7466273916E-19 -0.1157407765E-01
  0.7530110648E+00  0.1000000000E+01  0.0000000000E+00  0.2454037603E+00  0.5928831775E-17  0.3224641776E-02  0.4568773468E+14 -0.1156828525E+00 -0.2196686806E-17  0.7307737978E-02
  0.6570463033E+00  0.1000000000E+01  0.0000000000E+00  0.2032507559E+00  0.2587802988E-17 -0.5743412427E-02  0.4568773467E+14 -0.1217365468E+00 -0.1663945108E-17  0.2201015650E-02
  0.5429536967E+00  0.1000000000E+01  0.0000000000E+00  0.1664261788E+00  0.4275499767E-17 -0.3553964394E-03  0.4568773466E+14 -0.1023706464E+00 -0.2751346444E-17  0.1008383631E-01
  0.4469889352E+00  0.1000000000E+01  0.0000000000E+00  0.1340195340E+00  0.4144101552E-17 -0.3168363963E-02  0.4568773466E+14 -0.8755029715E-01 -0.2658441531E-17  0.3797321309E-02
  0.4000000000E+00  0.1000000000E+01  0.0000000000E+00  0.1304408877E+00  0.1227455513E-18  0.7218756358E-02  0.4568773466E+14 -0.7124329472E-01  0.5884978513E-19  0.7234052412E-02
  0.8000000000E+00  0.1000000000E+01  0.4698893521E-01  0.1471259758E+01 -0.3456734406E-16  0.2021535594E+00  0.4568773469E+14  0.8983180930E+00 -0.2824548863E-16 -0.8050264260E+00
  0.7530110648E+00  0.1000000000E+01  0.4698893521E-01  0.1574307139E+01 -0.7394350779E-16  0.1357468689E+00  0.4568773468E+14  0.1005069045E+01 -0.3998977891E-16 -0.8854803764E+00
  0.6570463033E+00  0.1000000000E+01  0.4698893521E-01  0.1192655795E+01  0.6472665715E-17  0.2362854486E+00  0.4568773467E+14  0.6612936472E+00 -0.1673236859E-17 -0.8323375654E+00
  0.5429536967E+00  0.1000000000E+01  0.4698893521E-01  0.1100404067E+01  0.1720747506E-16  0.2330278210E+00  0.4568773466E+14  0.6015788300E+00  0.8064391197E-17 -0.8070834628E+00
  0.4469889352E+00  0.1000000000E+01  0.4698893521E-01  0.8802519155E+00  0.4967020169E-18  0.2340257526E-01  0.4568773466E+14  0.4013555675E+00  0.4128642937E-17 -0.7895796676E+00
  0.4000000000E+00  0.1000000000E+01  0.4698893521E-01  0.9112712759E+00 -0.2737911150E-18 -0.1646113555E+00  0.4568773466E+14  0.4567499653E+00  0.2358197355E-17 -0.8199741738E+00
  0.8000000000E+00  0.1000000000E+01  0.1429536967E+00  0.2629296264E+01 -0.2185749671E-16  0.1102764956E+00  0.4568773469E+14  0.2106447616E+01 -0.3706589383E-16 -0.1193109898E+01
  0.7530110648E+00  0.1000000000E+01  0.1429536967E+00  0.2767450804E+01 -0.4204726734E-16  0.1907652473E+00  0.4568773468E+14  0.2212229359E+01 -0.2952833438E-16 -0.1120555140E+01
  0.6570463033E+00  0.1000000000E+01  0.1429536967E+00  0.2088956847E+01 -0.3611016652E-16  0.1558583613E-01  0.4568773468E+14  0.1506140166E+01 -0.1307249228E-16 -0.1196810198E+01
  0.5429536967E+00  0.1000000000E+01  0.1429536967E+00  0.1890681795E+01  0.3527961429E-16 -0.4336208496E-01  0.4568773467E+14  0.1266506142E+01  0.1669191837E-16 -0.1084554120E+01
  0.4469889352E+00  0.1000000000E+01  0.1429536967E+00  0.1474165377E+01  0.4619396670E-17 -0.1897995158E+00  0.4568773466E+14  0.7857137784E+00  0.1431304028E-16 -0.1167380122E+01
  0.4000000000E+00  0.1000000000E+01  0.1429536967E+00  0.1461448504E+01  0.2151429351E-16 -0.1924367868E+00  0.4568773465E+14  0.7411428622E+00  0.1132976446E-16 -0.1122951798E+01
  0.8000000000E+00  0.1000000000E+01  0.2570463033E+00  0.4120913858E+01 -0.8822121337E-17 -0.5379256709E+00  0.4568773470E+14  0.3616122227E+01 -0.9331578043E-17 -0.1836961799E+01
  0.7530110648E+00  0.1000000000E+01  0.2570463033E+00  0.3804632070E+01 -0.4922798187E-17 -0.3323638753E+00  0.4568773469E+14  0.3184884816E+01 -0.1988217343E-16 -0.1601803285E+01
  0.6570463033E+00  0.1000000000E+01  0.2570463033E+00  0.2951821382E+01 -0.2704846529E-16 -0.9721530854E-01  0.4568773468E+14  0.2236668088E+01 -0.6970669724E-17 -0.1369095159E+01
  0.5429536967E+00  0.1000000000E+01  0.2570463033E+00  0.2490795470E+01  0.2224798918E-16  0.3679055418E+00  0.4568773467E+14  0.1746934050E+01  0.9979746591E-17 -0.9074750010E+00
  0.4469889352E+00  0.1000000000E+01  0.2570463033E+00  0.2173429878E+01  0.9715542071E-17 -0.1648024538E+00  0.4568773466E+14  0.1338614534E+01 -0.1985105939E-17 -0.1132405471E+01
  0.4000000000E+00  0.1000000000E+01  0.2570463033E+00  0.1956479610E+01  0.6073027035E-17 -0.4198613130E+00  0.4568773466E+14  0.1022561311E+01  0.5159279724E-17 -0.1186502840E+01
  0.8000000000E+00  0.1000000000E+01  0.3530110648E+00  0.4746618410E+01 -0.2287170968E-17 -0.1652380395E+01  0.4568773470E+14  0.4241623150E+01 -0.7059089482E-18 -0.3326657727E+01
  0.7530110648E+00  0.1000000000E+01  0.3530110648E+00  0.4282974016E+01  0.6521788442E-16 -0.1520493800E+01  0.4568773470E+14  0.3619349919E+01  0.2699856687E-16 -0.3177403270E+01
  0.6570463033E+00  0.1000000000E+01  0.3530110648E+00  0.2764937269E+01 -0.1996103388E-16 -0.9820023754E+00  0.4568773469E+14  0.2422283102E+01  0.2071570434E-16 -0.3005137060E+01
  0.5429536967E+00  0.1000000000E+01  0.3530110648E+00  0.2941050224E+01 -0.7932167807E-16 -0.9108835154E-01  0.4568773468E+14  0.1984348123E+01  0.1584585377E-17 -0.2627491550E+01
  0.4469889352E+00  0.1000000000E+01  0.3530110648E+00  0.3439748057E+01  0.7415491801E-17 -0.7731430215E+00  0.4568773466E+14  0.1620533409E+01  0.1560747092E-16 -0.2238077465E+01
  0.4000000000E+00  0.1000000000E+01  0.3530110648E+00  0.2771588274E+01  0.2079875551E-17 -0.1165004232E+01  0.4568773465E+14  0.1285317828E+01  0.3384727921E-17 -0.2016544453E+01
  0.8000000000E+00  0.1000000000E+01  0.4000000000E+00  0.5058258330E+01 -0.1225278116E-16 -0.2458659913E+01  0.4568773470E+14  0.4673404198E+01 -0.1242979349E-16 -0.4062126110E+01
  0.7530110648E+00  0.1000000000E+01  0.4000000000E+00  0.4473479897E+01  0.1451359092E-17 -0.2492623408E+01  0.4568773469E+14  0.3795512611E+01  0.3568782927E-17 -0.4125633766E+01
  0.6570463033E+00  0.1000000000E+01  0.4000000000E+00  0.2666644387E+01 -0.1809562499E-17 -0.2646642232E+01  0.4568773469E+14  0.2743146886E+01 -0.1389150516E-16 -0.4732042435E+01
  0.5429536967E+00  0.1000000000E+01  0.4000000000E+00  0.3011924792E+01  0.2943820193E-16 -0.2085795214E+01  0.4568773468E+14  0.1916320702E+01 -0.2124189104E-16 -0.4938013705E+01
  0.4469889352E+00  0.1000000000E+01  0.4000000000E+00  0.3949144655E+01  0.6812791613E-16 -0.2152460314E+01  0.4568773466E+14  0.1280875103E+01  0.1707275045E-16 -0.3717552731E+01
  0.4000000000E+00  0.1000000000E+01  0.4000000000E+00  0.2903710568E+01  0.3933249857E-17 -0.1915245216E+01  0.4568773465E+14  0.1161760620E+01  0.3985926087E-17 -0.2863319882E+01
ZONE I=6, J=6, K=1, F=POINT
  0.1200000000E+01  0.1000000000E+01  0.0000000000E+00  0.3650846947E+00  0.2880257992E-18  0.3436326539E-01  0.4568773473E+14 -0.5158146572E-01  0.2364859332E-18  0.3257268429E-01
  0.1153011065E+01  0.1000000000E+01  0.0000000000E+00  0.3829805434E+00  0.1832532312E-16 -0.1283235120E-01  0.4568773472E+14 -0.3659673084E-01 -0.5202895371E-18 -0.1329419276E-01
  0.1057046303E+01  0.1000000000E+01  0.0000000000E+00  0.3621639869E+00  0.9295058448E-17  0.2276904430E-02  0.4568773471E+14 -0.5427036968E-01 -0.1484403890E-17  0.3168181050E-02
  0.9429536967E+00  0.1000000000E+01  0.0000000000E+00  0.3166523262E+00  0.3790566914E-18 -0.1212254415E-01  0.4568773470E+14 -0.8560928007E-01  0.2988534959E-18 -0.1016091174E-01
  0.8469889352E+00  0.1000000000E+01  0.0000000000E+00  0.2846734289E+00  0.1598210289E-19  0.2243792917E-02  0.4568773469E+14 -0.9872909329E-01  0.5191801545E-19  0.5239737201E-02
  0.8000000000E+00  0.1000000000E+01  0.0000000000E+00  0.2337006608E+00  0.1558838862E-18 -0.1366888130E-01  0.4568773469E+14 -0.1379910877E+00  0.7070149193E-19 -0.1106714841E-01
  0.1200000000E+01  0.1000000000E+01  0.4698893521E-01  0.3670416490E+01 -0.9844943533E-16  0.5106572392E+00  0.4568773473E+14  0.3235215651E+01 -0.7804887221E-16 -0.7456949195E-01
  0.1153011065E+01  0.1000000000E+01  0.4698893521E-01  0.2972929032E+01 -0.6597118147E-16  0.5958765510E+00  0.4568773473E+14  0.2540221619E+01 -0.5120106781E-16 -0.4321214827E-01
  0.1057046303E+01  0.1000000000E+01  0.4698893521E-01  0.2788107590E+01  0.2829391915E-17  0.4351822504E+00  0.4568773471E+14  0.2303332936E+01 -0.4273926152E-17 -0.3519923936E+00
  0.9429536967E+00  0.1000000000E+01  0.4698893521E-01  0.2081589723E+01 -0.4503440060E-16  0.2993559342E+00  0.4568773470E+14  0.1547080092E+01 -0.3075142053E-16 -0.6015565056E+00
  0.8469889352E+00  0.1000000000E+01  0.4698893521E-01  0.1870018358E+01 -0.7306725286E-16  0.1681747455E+00  0.4568773469E+14  0.1320439264E+01 -0.4768959149E-16 -0.8125364258E+00
  0.8000000000E+00  0.1000000000E+01  0.4698893521E-01  0.1408103212E+01 -0.3405549393E-16  0.2040624655E+00  0.4568773469E+14  0.8374891880E+00 -0.2772225904E-16 -0.8030225917E+00
  0.1200000000E+01  0.1000000000E+01  0.1429536967E+00  0.7180063507E+01 -0.9893968066E-16  0.5188949804E+00  0.4568773474E+14  0.6847227542E+01 -0.8979171533E-16 -0.2904025708E+00
  0.1153011065E+01  0.1000000000E+01  0.1429536967E+00  0.5753543239E+01 -0.1884331714E-18  0.2283542385E+00  0.4568773473E+14  0.5479942507E+01 -0.1076014737E-16 -0.6423673893E+00
  0.1057046303E+01  0.1000000000E+01  0.1429536967E+00  0.5263951470E+01 -0.4140031366E-16  0.2640274795E+00  0.4568773472E+14  0.4950046976E+01 -0.4116584551E-16 -0.7622904518E+00
  0.9429536967E+00  0.1000000000E+01  0.1429536967E+00  0.3867434587E+01 -0.3358107317E-16 -0.1556817944E-01  0.4568773471E+14  0.3442779832E+01 -0.3428389663E-16 -0.1229428734E+01
  0.8469889352E+00  0.1000000000E+01  0.1429536967E+00  0.3440566696E+01 -0.7912634905E-16  0.1678299356E+00  0.4568773470E+14  0.2953194527E+01 -0.6159154427E-16 -0.1117642413E+01
  0.8000000000E+00  0.1000000000E+01  0.1429536967E+00  0.2544461318E+01 -0.2338876152E-16  0.1079619582E+00  0.4568773469E+14  0.2022436786E+01 -0.3883198553E-16 -0.1194996649E+01
  0.1200000000E+01  0.1000000000E+01  0.2570463033E+00  0.8053008660E+01 -0.2586252445E-16 -0.6473109125E+00  0.4568773475E+14  0.7873874992E+01 -0.2649293893E-16 -0.1474905877E+01
  0.1153011065E+01  0.1000000000E+01  0.2570463033E+00  0.7629146315E+01 -0.1992486019E-15 -0.9859159095E+00  0.4568773475E+14  0.7487774549E+01 -0.1955836285E-15 -0.1877849196E+01
  0.1057046303E+01  0.1000000000E+01  0.2570463033E+00  0.6692475462E+01 -0.3459245818E-16 -0.8763959121E+00  0.4568773473E+14  0.6539465636E+01 -0.3499553570E-16 -0.1872867599E+01
  0.9429536967E+00  0.1000000000E+01  0.2570463033E+00  0.5453386419E+01 -0.1077518354E-15 -0.1198752430E+01  0.4568773472E+14  0.5177562394E+01 -0.9223269456E-16 -0.2328258987E+01
  0.8469889352E+00  0.1000000000E+01  0.2570463033E+00  0.4653929487E+01  0.3820597030E-16 -0.6004825605E+00  0.4568773470E+14  0.4227533959E+01  0.7333431539E-17 -0.1873212032E+01
  0.8000000000E+00  0.1000000000E+01  0.2570463033E+00  0.4081725703E+01 -0.9945087564E-17 -0.5412244119E+00  0.4568773470E+14  0.3576863670E+01 -0.1046040182E-16 -0.1839518912E+01
  0.1200000000E+01  0.1000000000E+01  0.3530110648E+00  0.8860386204E+01  0.1637225604E-17 -0.1832454023E+01  0.4568773476E+14  0.8800207655E+01  0.1155338039E-17 -0.2791092124E+01
  0.1153011065E+01  0.1000000000E+01  0.3530110648E+00  0.8286030083E+01 -0.3435458586E-16 -0.1918549263E+01  0.4568773476E+14  0.8297911906E+01 -0.3491853599E-16 -0.2946639650E+01
  0.1057046303E+01  0.1000000000E+01  0.3530110648E+00  0.7577079515E+01 -0.3905826017E-16 -0.1952397950E+01  0.4568773474E+14  0.7510175122E+01 -0.2228157885E-16 -0.3116123393E+01
  0.9429536967E+00  0.1000000000E+01  0.3530110648E+00  0.6161199741E+01 -0.8028249764E-16 -0.2215725138E+01  0.4568773472E+14  0.6051106030E+01 -0.6514608456E-16 -0.3527297392E+01
  0.8469889352E+00  0.1000000000E+01  0.3530110648E+00  0.5218776539E+01  0.2854595005E-16 -0.1780784976E+01  0.4568773471E+14  0.4993911683E+01  0.3566957890E-16 -0.3351874171E+01
  0.8000000000E+00  0.1000000000E+01  0.3530110648E+00  0.4696308974E+01 -0.2604295706E-17 -0.1653051635E+01  0.4568773470E+14  0.4192988431E+01 -0.1205602478E-17 -0.3327452770E+01
  0.1200000000E+01  0.1000000000E+01  0.4000000000E+00  0.8853830278E+01 -0.6652124482E-18 -0.2259051831E+01  0.4568773477E+14  0.8826526632E+01 -0.1195965255E-17 -0.3105744642E+01
  0.1153011065E+01  0.1000000000E+01  0.4000000000E+00  0.8624018143E+01  0.1679220415E-16 -0.2565819246E+01  0.4568773476E+14  0.8697261953E+01  0.2890322778E-16 -0.3439745057E+01
  0.1057046303E+01  0.1000000000E+01  0.4000000000E+00  0.7815664611E+01 -0.6464852097E-17 -0.2452333136E+01  0.4568773474E+14  0.7812914321E+01 -0.3564106854E-17 -0.3444551971E+01
  0.9429536967E+00  0.1000000000E+01  0.4000000000E+00  0.6508169991E+01 -0.6493701766E-16 -0.2656859455E+01  0.4568773472E+14  0.6496695462E+01 -0.6888025188E-16 -0.3886467897E+01
  0.8469889352E+00  0.1000000000E+01  0.4000000000E+00  0.5392040931E+01 -0.6456875474E-17 -0.2459530914E+01  0.4568773471E+14  0.5304571274E+01 -0.5245030242E-17 -0.3905796674E+01
  0.8000000000E+00  0.1000000000E+01  0.4000000000E+00  0.5055736759E+01 -0.1244627111E-16 -0.2460849296E+01  0.4568773470E+14  0.4667972394E+01 -0.1264258788E-16 -0.4065060211E+01
ZONE I=6, J=6, K=1, F=POINT
  0.1600000000E+01  0.1000000000E+01  0.0000000000E+00  0.6373049294E+00 -0.6204412389E-18 -0.9308787438E-01  0.4568773478E+14  0.2575335002E+00 -0.5635492491E-18 -0.8859716318E-01
  0.1553011065E+01  0.1000000000E+01  0.0000000000E+00  0.5063344117E+00 -0.2555031640E-16  0.4155183021E-01  0.4568773477E+14  0.1244394088E+00 -0.7438078194E-17  0.4124629068E-01
  0.1457046303E+01  0.1000000000E+01  0.0000000000E+00  0.4575570666E+00 -0.1075665884E-16 -0.7449119541E-02  0.4568773476E+14  0.6689397039E-01 -0.1498667371E-17 -0.9205743250E-02
  0.1342953697E+01  0.1000000000E+01  0.0000000000E+00  0.4380748092E+00  0.2448684398E-16  0.2606712605E-01  0.4568773475E+14  0.3554264375E-01  0.2210717247E-17  0.2487142534E-01
  0.1246988935E+01  0.1000000000E+01  0.0000000000E+00  0.4011703897E+00  0.1406105670E-17 -0.1138837214E-01  0.4568773473E+14 -0.9927457882E-02 -0.8230617305E-18 -0.1276979441E-01
  0.1200000000E+01  0.1000000000E+01  0.0000000000E+00  0.4552098957E+00  0.4052274079E-18  0.3442975173E-01  0.4568773473E+14  0.3913956432E-01  0.2782186654E-18  0.3255575950E-01
  0.1600000000E+01  0.1000000000E+01  0.4698893521E-01  0.4211905826E+01 -0.1185702504E-15  0.9072008476E+00  0.4568773478E+14  0.4031996475E+01 -0.1142630572E-15 -0.6728185505E-01
  0.1553011065E+01  0.1000000000E+01  0.4698893521E-01  0.4669396896E+01 -0.1297908627E-16  0.4513313514E+00  0.4568773477E+14  0.4455780586E+01 -0.1895416717E-16 -0.4622670107E+00
  0.1457046303E+01  0.1000000000E+01  0.4698893521E-01  0.3833619309E+01 -0.4271204664E-16  0.8062014207E+00  0.4568773476E+14  0.3556243596E+01 -0.3508692193E-16  0.3217644556E-01
  0.1342953697E+01  0.1000000000E+01  0.4698893521E-01  0.3959372258E+01  0.3679899341E-16  0.7395729763E+00  0.4568773475E+14  0.3593013473E+01  0.3322927257E-16  0.6630883207E-01
  0.1246988935E+01  0.1000000000E+01  0.4698893521E-01  0.3366820170E+01  0.3970517752E-16  0.7082323894E+00  0.4568773474E+14  0.2935964532E+01  0.2127313040E-16  0.1153434552E+00
  0.1200000000E+01  0.1000000000E+01  0.4698893521E-01  0.3771843720E+01 -0.1032603385E-15  0.5050988598E+00  0.4568773473E+14  0.3333386255E+01 -0.8265525796E-16 -0.8000550681E-01
  0.1600000000E+01  0.1000000000E+01  0.1429536967E+00  0.7842494304E+01 -0.2068199859E-15 -0.1827308538E+00  0.4568773479E+14  0.7678373077E+01 -0.2175655189E-15 -0.9308775053E+00
  0.1553011065E+01  0.1000000000E+01  0.1429536967E+00  0.9338845643E+01 -0.1985303006E-15  0.6386378801E+00  0.4568773478E+14  0.9051620853E+01 -0.1831387089E-15 -0.1503284920E+00
  0.1457046303E+01  0.1000000000E+01  0.1429536967E+00  0.7663436356E+01  0.9319115310E-16  0.5620466305E+00  0.4568773477E+14  0.7297469098E+01  0.6927793969E-16 -0.2216684752E+00
  0.1342953697E+01  0.1000000000E+01  0.1429536967E+00  0.7932846722E+01  0.1367629220E-15  0.1084355617E+01  0.4568773476E+14  0.7509489417E+01  0.1207615433E-15  0.3429282155E+00
  0.1246988935E+01  0.1000000000E+01  0.1429536967E+00  0.6495509662E+01 -0.8043142557E-16  0.4289225058E+00  0.4568773475E+14  0.6060290482E+01 -0.4270505782E-16 -0.3331365608E+00
  0.1200000000E+01  0.1000000000E+01  0.1429536967E+00  0.7355090415E+01 -0.1023646411E-15  0.5268060642E+00  0.4568773474E+14  0.7006439947E+01 -0.9291039227E-16 -0.2848408052E+00
  0.1600000000E+01  0.1000000000E+01  0.2570463033E+00  0.1314240775E+02  0.8137810971E-16 -0.1701464416E+01  0.4568773481E+14  0.1323186775E+02  0.8163560741E-16 -0.2028600310E+01
  0.1553011065E+01  0.1000000000E+01  0.2570463033E+00  0.1209236133E+02  0.1220961789E-15 -0.6619971448E+00  0.4568773480E+14  0.1199095512E+02  0.1157775464E-15 -0.1080083219E+01
  0.1457046303E+01  0.1000000000E+01  0.2570463033E+00  0.1109034004E+02  0.2325771042E-15 -0.7780834484E+00  0.4568773479E+14  0.1077251641E+02  0.2144268922E-15 -0.1342561679E+01
  0.1342953697E+01  0.1000000000E+01  0.2570463033E+00  0.9654308328E+01  0.1824665363E-15  0.1270050348E+00  0.4568773477E+14  0.9276243095E+01  0.1611442702E-15 -0.5179390161E+00
  0.1246988935E+01  0.1000000000E+01  0.2570463033E+00  0.8374845582E+01  0.9794420346E-16 -0.7936064641E+00  0.4568773476E+14  0.8092642199E+01  0.7337153570E-16 -0.1548507350E+01
  0.1200000000E+01  0.1000000000E+01  0.2570463033E+00  0.8092932537E+01 -0.2708505191E-16 -0.6362459189E+00  0.4568773475E+14  0.7917893658E+01 -0.2831212367E-16 -0.1467385574E+01
  0.1600000000E+01  0.1000000000E+01  0.3530110648E+00  0.1201169524E+02  0.1678761479E-15 -0.2013536213E+01  0.4568773482E+14  0.1221067289E+02  0.1678660043E-15 -0.2674840730E+01
  0.1553011065E+01  0.1000000000E+01  0.3530110648E+00  0.1226462623E+02  0.1811218383E-15 -0.1981574063E+01  0.4568773481E+14  0.1229037725E+02  0.1809302865E-15 -0.2669842849E+01
  0.1457046303E+01  0.1000000000E+01  0.3530110648E+00  0.1136345321E+02  0.2189748164E-15 -0.1676311597E+01  0.4568773480E+14  0.1113846442E+02  0.2156203233E-15 -0.2425954235E+01
  0.1342953697E+01  0.1000000000E+01  0.3530110648E+00  0.1027304606E+02  0.1372492971E-15 -0.1181572416E+01  0.4568773478E+14  0.9973562625E+01  0.1354979284E-15 -0.2033548496E+01
  0.1246988935E+01  0.1000000000E+01  0.3530110648E+00  0.8922865809E+01 -0.2462793626E-16 -0.1717564155E+01  0.4568773477E+14  0.8748663107E+01 -0.1017565832E-16 -0.2642593075E+01
  0.1200000000E+01  0.1000000000E+01  0.3530110648E+00  0.8942707932E+01  0.2146029453E-17 -0.1832015156E+01  0.4568773476E+14  0.8878873346E+01  0.1261642633E-17 -0.2790761895E+01
  0.1600000000E+01  0.1000000000E+01  0.4000000000E+00  0.1240878028E+02  0.1684235235E-15 -0.2356932283E+01  0.4568773483E+14  0.1265175144E+02  0.1673800722E-15 -0.2878056625E+01
  0.1553011065E+01  0.1000000000E+01  0.4000000000E+00  0.1177014174E+02  0.1507480655E-15 -0.1693589808E+01  0.4568773482E+14  0.1181528349E+02  0.1430010419E-15 -0.2243655475E+01
  0.1457046303E+01  0.1000000000E+01  0.4000000000E+00  0.1141494619E+02  0.1393415790E-15 -0.2019720060E+01  0.4568773481E+14  0.1122357431E+02  0.1344777188E-15 -0.2609847088E+01
  0.1342953697E+01  0.1000000000E+01  0.4000000000E+00  0.1023748977E+02  0.1954979770E-15 -0.1510138360E+01  0.4568773479E+14  0.9989227450E+01  0.1709405662E-15 -0.2227398944E+01
  0.1246988935E+01  0.1000000000E+01  0.4000000000E+00  0.9310493530E+01 -0.6611565111E-17 -0.2329090205E+01  0.4568773478E+14  0.9165128439E+01  0.6301166309E-17 -0.3149847218E+01
  0.1200000000E+01  0.1000000000E+01  0.4000000000E+00  0.8829876480E+01  0.3104927814E-18 -0.2245753661E+01  0.4568773477E+14  0.8800248699E+01 -0.4046243642E-18 -0.3095832486E+01
ZONE I=6, J=6, K=1, F=POINT
  0.2000000000E+01  0.1000000000E+01  0.0000000000E+00  0.2462576307E+01  0.1788569676E-18  0.2127955991E+02  0.4568773480E+14  0.2474107371E+01  0.1640451523E-18  0.2219810737E+02
  0.1953011065E+01  0.1000000000E+01  0.0000000000E+00  0.1836874030E+01 -0.4898892111E-16 -0.6741753639E-01  0.4568773482E+14  0.1557898846E+01 -0.4102433088E-16 -0.9301600917E-01
  0.1857046303E+01  0.1000000000E+01  0.0000000000E+00  0.3395959086E+00  0.1758653001E-16  0.1362743670E+00  0.4568773481E+14 -0.3457060458E-01 -0.4636208821E-17  0.1307975322E+00
  0.1742953697E+01  0.1000000000E+01  0.0000000000E+00  0.7007643372E+00  0.2034805479E-17 -0.3247922064E-01  0.4568773480E+14  0.3274210741E+00  0.9949346159E-18 -0.3625575424E-01
  0.1646988935E+01  0.1000000000E+01  0.0000000000E+00  0.4842978224E+00 -0.1269473433E-17  0.5133070212E-01  0.4568773478E+14  0.4954252814E-01  0.2347638908E-18  0.5099610416E-01
  0.1600000000E+01  0.1000000000E+01  0.0000000000E+00  0.5805594892E+00 -0.7918276144E-18 -0.1054689578E+00  0.4568773478E+14  0.2061396704E+00 -0.7032505584E-18 -0.9929987222E-01
  0.2000000000E+01  0.1000000000E+01  0.4698893521E-01  0.6116122880E-01  0.8158712326E-18  0.4904282595E+02  0.4568773483E+14  0.1863614757E-02  0.1027960264E-17  0.4891493850E+02
  0.1953011065E+01  0.1000000000E+01  0.4698893521E-01  0.1206263413E+02  0.1435059562E-15  0.2590976503E+01  0.4568773483E+14  0.1233428204E+02  0.1455897155E-15  0.2803196726E+01
  0.1857046303E+01  0.1000000000E+01  0.4698893521E-01  0.1289326074E+02  0.3783070377E-15 -0.7663478342E+00  0.4568773481E+14  0.1316384419E+02  0.3964772893E-15 -0.8363612307E+00
  0.1742953697E+01  0.1000000000E+01  0.4698893521E-01  0.6952185396E+01 -0.5615748087E-16  0.5160776402E+00  0.4568773480E+14  0.7066419266E+01 -0.5613177155E-16 -0.7908466849E-01
  0.1646988935E+01  0.1000000000E+01  0.4698893521E-01  0.5974379653E+01 -0.2097048518E-15  0.2044667564E+00  0.4568773479E+14  0.5945727329E+01 -0.2071088905E-15 -0.7315450861E+00
  0.1600000000E+01  0.1000000000E+01  0.4698893521E-01  0.4035176083E+01 -0.1151709250E-15  0.8927682044E+00  0.4568773478E+14  0.3865414234E+01 -0.1105396164E-15 -0.8605863070E-01
  0.2000000000E+01  0.1000000000E+01  0.1429536967E+00 -0.2973284913E+00  0.2143825006E-17  0.5119400023E+02  0.4568773484E+14 -0.2784879162E+00  0.7942061163E-18  0.5070654809E+02
  0.1953011065E+01  0.1000000000E+01  0.1429536967E+00  0.3928558142E+01 -0.4094580800E-15  0.1775154410E+02  0.4568773484E+14  0.4200163709E+01 -0.3835322051E-15  0.1791943848E+02
  0.1857046303E+01  0.1000000000E+01  0.1429536967E+00  0.1383769747E+02 -0.3453497189E-15 -0.2310327174E+01  0.4568773483E+14  0.1450338923E+02 -0.3846642060E-15 -0.2249630017E+01
  0.1742953697E+01  0.1000000000E+01  0.1429536967E+00  0.1126846219E+02  0.8113743518E-16 -0.2479549820E+01  0.4568773481E+14  0.1186954143E+02  0.1381852998E-15 -0.2911656308E+01
  0.1646988935E+01  0.1000000000E+01  0.1429536967E+00  0.1129264556E+02 -0.1774280446E-15 -0.4156103152E+00  0.4568773480E+14  0.1144551054E+02 -0.1722985660E-15 -0.1105661548E+01
  0.1600000000E+01  0.1000000000E+01  0.1429536967E+00  0.7459505718E+01 -0.2220781903E-15 -0.1861790362E+00  0.4568773479E+14  0.7337909248E+01 -0.2330614164E-15 -0.9358981372E+00
  0.2000000000E+01  0.1000000000E+01  0.2570463033E+00  0.2652697557E-01  0.1326584878E-17  0.5049979847E+02  0.4568773486E+14  0.1608171274E-01  0.1226377870E-17  0.5005077468E+02