TITLE = "Generated from ../MESH/Convergence_0000000000.hmesh and Convergence_0000004500.hsol"
VARIABLES = "x","y","z","veloT_x","veloT_y","veloT_z","slr_4","velo_x","velo_y","velo_z"
ZONE I=6, J=6, K=1, F=POINT
  0.4000000000E+00  0.1000000000E+01  0.0000000000E+00 -0.1075707343E-01  0.2829872410E-19  0.7777981171E-02  0.6368264485E+15 -0.1082254808E-01  0.2857007927E-19  0.7512148281E-02
  0.3530110648E+00  0.1000000000E+01  0.0000000000E+00 -0.1713057559E-03  0.6957786459E-20 -0.3153456275E-03  0.6368264485E+15 -0.1284868141E-03  0.7603947075E-20 -0.3687769262E-03
  0.2570463033E+00  0.1000000000E+01  0.0000000000E+00  0.7665396407E-03  0.7424105838E-21  0.2283056647E-02  0.6368264485E+15  0.1006669119E-02  0.7694860378E-21  0.2291542307E-02
  0.1429536967E+00  0.1000000000E+01  0.0000000000E+00 -0.6248526598E-03  0.2048741634E-21 -0.1238811483E-02  0.6368264485E+15  0.2753529769E-05  0.2124071783E-21 -0.1154753137E-02
  0.4698893521E-01  0.1000000000E+01  0.0000000000E+00  0.1946520600E-02 -0.2466525387E-20  0.1932833641E-02  0.6368264485E+15  0.2601807369E-02 -0.2319226023E-20  0.1857017268E-02
  0.0000000000E+00  0.1000000000E+01  0.0000000000E+00 -0.7549613163E-02  0.1225907042E-22  0.2040517411E-02  0.6368264485E+15 -0.7447989899E-02  0.1170116053E-22  0.1958516647E-02
  0.4000000000E+00  0.1000000000E+01  0.4698893521E-01  0.2676228750E+00  0.2998528072E-17 -0.4505785354E-01  0.6368264485E+15  0.2687587059E+00  0.2992643741E-17 -0.4721596397E-01
  0.3530110648E+00  0.1000000000E+01  0.4698893521E-01  0.1271851309E+00  0.2711839213E-17 -0.8125951699E-02  0.6368264485E+15  0.1292176618E+00  0.2693363604E-17 -0.1058252336E-01
  0.2570463033E+00  0.1000000000E+01  0.4698893521E-01  0.9904697435E-01  0.1083356011E-17 -0.1816553139E-01  0.6368264485E+15  0.1009102270E+00  0.1075519465E-17 -0.2189877935E-01
  0.1429536967E+00  0.1000000000E+01  0.4698893521E-01  0.3332118995E-02  0.2857311411E-18 -0.1066846964E-01  0.6368264485E+15  0.5135754713E-02  0.2885141256E-18 -0.1422468291E-01
  0.4698893521E-01  0.1000000000E+01  0.4698893521E-01 -0.3269537099E-02  0.6140474968E-19 -0.7899985482E-02  0.6368264485E+15 -0.1565154117E-02  0.6436852707E-19 -0.1022885411E-01
  0.0000000000E+00  0.1000000000E+01  0.4698893521E-01 -0.1813267878E-01  0.9474789025E-21  0.2220643139E-02  0.6368264485E+15 -0.1801711351E-01  0.9388098584E-21  0.1586538910E-02
  0.4000000000E+00  0.1000000000E+01  0.1429536967E+00  0.6038603813E+00  0.9799780549E-17 -0.1018223581E+00  0.6368264485E+15  0.6033927520E+00  0.9790912269E-17 -0.1107111227E+00
  0.3530110648E+00  0.1000000000E+01  0.1429536967E+00  0.3411412550E+00  0.5929230881E-17 -0.1439368614E+00  0.6368264485E+15  0.3446641387E+00  0.5985822030E-17 -0.1526498690E+00
  0.2570463033E+00  0.1000000000E+01  0.1429536967E+00  0.2393876576E+00  0.2462312653E-17 -0.9288205310E-01  0.6368264485E+15  0.2416243252E+00  0.2457552813E-17 -0.1020188328E+00
  0.1429536967E+00  0.1000000000E+01  0.1429536967E+00  0.3799455698E-01  0.9248096093E-18 -0.1105683145E+00  0.6368264485E+15  0.3726212325E-01  0.9214295542E-18 -0.1166918918E+00
  0.4698893521E-01  0.1000000000E+01  0.1429536967E+00 -0.7798419016E-02  0.2231031036E-18 -0.8497044736E-02  0.6368264485E+15 -0.7981826796E-02  0.2360610185E-18 -0.1117087071E-01
  0.0000000000E+00  0.1000000000E+01  0.1429536967E+00 -0.2143950057E-01 -0.1297549961E-21 -0.1510981929E-02  0.6368264485E+15 -0.2145795713E-01 -0.1166949586E-21 -0.2091715561E-02
  0.4000000000E+00  0.1000000000E+01  0.2570463033E+00  0.7209757792E+00  0.3807473188E-17 -0.3458718272E+00  0.6368264485E+15  0.7156189831E+00  0.3809471617E-17 -0.3657976322E+00
  0.3530110648E+00  0.1000000000E+01  0.2570463033E+00  0.5364826560E+00  0.3255446850E-17 -0.3972517182E+00  0.6368264485E+15  0.5363492435E+00  0.3025363170E-17 -0.4132871085E+00
  0.2570463033E+00  0.1000000000E+01  0.2570463033E+00  0.3333734339E+00  0.2115837158E-17 -0.2841822490E+00  0.6368264485E+15  0.3321516163E+00  0.2118915048E-17 -0.2935125249E+00
  0.1429536967E+00  0.1000000000E+01  0.2570463033E+00  0.1003251902E+00  0.1571991426E-17 -0.2781552840E+00  0.6368264485E+15  0.9506569908E-01  0.1573924855E-17 -0.2829580968E+00
  0.4698893521E-01  0.1000000000E+01  0.2570463033E+00  0.1039682625E-01  0.1079686952E-17 -0.4929827607E-01  0.6368264485E+15  0.7576812127E-02  0.1051200922E-17 -0.5151388247E-01
  0.0000000000E+00  0.1000000000E+01  0.2570463033E+00 -0.1425128962E-01 -0.3418955727E-20 -0.1233988356E-02  0.6368264485E+15 -0.1420511305E-01 -0.3421884878E-20 -0.1781916884E-02
  0.4000000000E+00  0.1000000000E+01  0.3530110648E+00  0.7861706886E+00  0.4267419680E-17 -0.6230051652E+00  0.6368264485E+15  0.7710775458E+00  0.4279610417E-17 -0.6470237768E+00
  0.3530110648E+00  0.1000000000E+01  0.3530110648E+00  0.5849419476E+00  0.3820566592E-17 -0.6389186886E+00  0.6368264485E+15  0.5730730551E+00  0.3816717574E-17 -0.6565180567E+00
  0.2570463033E+00  0.1000000000E+01  0.3530110648E+00  0.3634016798E+00  0.1844571948E-17 -0.4974651637E+00  0.6368264485E+15  0.3557700052E+00  0.1936755784E-17 -0.5037006144E+00
  0.1429536967E+00  0.1000000000E+01  0.3530110648E+00  0.1127985357E+00  0.2044969447E-17 -0.4211796265E+00  0.6368264485E+15  0.1060164091E+00  0.2070475098E-17 -0.4241508345E+00
  0.4698893521E-01  0.1000000000E+01  0.3530110648E+00  0.1422739891E-01  0.6214201171E-18 -0.1121743495E+00  0.6368264485E+15  0.9570227483E-02  0.6388953062E-18 -0.1141294729E+00
  0.0000000000E+00  0.1000000000E+01  0.3530110648E+00 -0.1427454152E-01  0.5882588031E-20 -0.1308723275E-02  0.6368264485E+15 -0.1433801793E-01  0.5795961573E-20 -0.1808903113E-02
  0.4000000000E+00  0.1000000000E+01  0.4000000000E+00  0.7806129497E+00  0.6441920511E-17 -0.7626769405E+00  0.6368264485E+15  0.7601267550E+00  0.6451128906E-17 -0.7836470204E+00
  0.3530110648E+00  0.1000000000E+01  0.4000000000E+00  0.6265187098E+00  0.5501750457E-17 -0.7664211125E+00  0.6368264485E+15  0.6080199254E+00  0.5522067078E-17 -0.7816766641E+00
  0.2570463033E+00  0.1000000000E+01  0.4000000000E+00  0.3741033046E+00  0.2398753208E-17 -0.6037186006E+00  0.6368264485E+15  0.3632255305E+00  0.2391977346E-17 -0.6095956486E+00
  0.1429536967E+00  0.1000000000E+01  0.4000000000E+00  0.1266618112E+00  0.2326487215E-17 -0.4936039313E+00  0.6368264485E+15  0.1196504965E+00  0.2289903119E-17 -0.4963465053E+00
  0.4698893521E-01  0.1000000000E+01  0.4000000000E+00  0.1155215870E-01  0.6261974786E-18 -0.1422563356E+00  0.6368264485E+15  0.5908562178E-02  0.6296310482E-18 -0.1432751704E+00
  0.0000000000E+00  0.1000000000E+01  0.4000000000E+00 -0.6554972143E-02  0.7932082048E-20 -0.2959386529E-02  0.6368264485E+15 -0.6745017162E-02  0.7707390164E-20 -0.2902786289E-02
ZONE I=6, J=6, K=1, F=POINT
  0.8000000000E+00  0.1000000000E+01  0.0000000000E+00  0.1962715859E-01 -0.8591340190E-19 -0.1195734097E-01  0.6368264485E+15  0.1935563619E-01 -0.8766194350E-19 -0.1228567770E-01
  0.7530110648E+00  0.1000000000E+01  0.0000000000E+00  0.3658637691E-02  0.1097920146E-18  0.5997147728E-02  0.6368264485E+15  0.3704102275E-02  0.1141112668E-18  0.5893907663E-02
  0.6570463033E+00  0.1000000000E+01  0.0000000000E+00  0.1196551606E-02  0.4358605866E-19  0.3095265316E-03  0.6368264485E+15  0.1056304460E-02  0.4224406966E-19  0.3153839304E-03
  0.5429536967E+00  0.1000000000E+01  0.0000000000E+00  0.2352819301E-02  0.6392259210E-19  0.7025905891E-02  0.6368264485E+15  0.2232772235E-02  0.6219383830E-19  0.6998664511E-02
  0.4469889352E+00  0.1000000000E+01  0.0000000000E+00 -0.5709111494E-03  0.6027525946E-21  0.7448322590E-03  0.6368264485E+15 -0.3776927408E-03  0.8036839121E-20  0.6431563165E-03
  0.4000000000E+00  0.1000000000E+01  0.0000000000E+00  0.1617427543E-01  0.3190189771E-19  0.7468750368E-02  0.6368264485E+15  0.1627008530E-01  0.3215764039E-19  0.7201941598E-02
  0.8000000000E+00  0.1000000000E+01  0.4698893521E-01  0.3317290197E+00 -0.2378780128E-16  0.1032863892E-01  0.6368264485E+15  0.3340178263E+00 -0.2381163946E-16 -0.1199876590E-02
  0.7530110648E+00  0.1000000000E+01  0.4698893521E-01  0.5237511703E+00 -0.2318605803E-16 -0.4625986553E-01  0.6368264485E+15  0.5273108873E+00 -0.2337291493E-16 -0.5839464345E-01
  0.6570463033E+00  0.1000000000E+01  0.4698893521E-01  0.3041589791E+00 -0.4630795120E-17 -0.1106777464E-01  0.6368264485E+15  0.3066101092E+00 -0.4620848596E-17 -0.2385176722E-01
  0.5429536967E+00  0.1000000000E+01  0.4698893521E-01  0.3354832214E+00  0.4320241397E-17 -0.1622327277E-02  0.6368264485E+15  0.3366262126E+00  0.4334636915E-17 -0.1011391716E-01
  0.4469889352E+00  0.1000000000E+01  0.4698893521E-01  0.2061585743E+00  0.3926532571E-17  0.5299637869E-03  0.6368264485E+15  0.2079076095E+00  0.3919194293E-17 -0.3424650664E-02
  0.4000000000E+00  0.1000000000E+01  0.4698893521E-01  0.3094656214E+00  0.2759060923E-17 -0.4581894706E-01  0.6368264485E+15  0.3108826650E+00  0.2750991509E-17 -0.4796412123E-01
  0.8000000000E+00  0.1000000000E+01  0.1429536967E+00  0.1064579949E+01 -0.5430913514E-16 -0.3352533098E+00  0.6368264485E+15  0.1066403985E+01 -0.5423941704E-16 -0.3606782335E+00
  0.7530110648E+00  0.1000000000E+01  0.1429536967E+00  0.1352395057E+01 -0.3441695132E-16 -0.1857217040E+00  0.6368264485E+15  0.1356562365E+01 -0.3428014934E-16 -0.2108272229E+00
  0.6570463033E+00  0.1000000000E+01  0.1429536967E+00  0.9107361876E+00 -0.3796669779E-17 -0.1746836765E+00  0.6368264485E+15  0.9110799734E+00 -0.3822952048E-17 -0.1978465850E+00
  0.5429536967E+00  0.1000000000E+01  0.1429536967E+00  0.8446059761E+00  0.9689628878E-17 -0.3265039273E-01  0.6368264485E+15  0.8395619371E+00  0.9534004290E-17 -0.5083057663E-01
  0.4469889352E+00  0.1000000000E+01  0.1429536967E+00  0.5397666359E+00  0.9397452438E-17 -0.1208453887E+00  0.6368264485E+15  0.5358224598E+00  0.9482044840E-17 -0.1320131236E+00
  0.4000000000E+00  0.1000000000E+01  0.1429536967E+00  0.6549331275E+00  0.1050569662E-16 -0.1012637628E+00  0.6368264485E+15  0.6539635133E+00  0.1049112654E-16 -0.1101719953E+00
  0.8000000000E+00  0.1000000000E+01  0.2570463033E+00  0.2079196150E+01 -0.1392160818E-16 -0.8691974646E+00  0.6368264485E+15  0.2084836896E+01 -0.1390972405E-16 -0.8970539033E+00
  0.7530110648E+00  0.1000000000E+01  0.2570463033E+00  0.1947819865E+01 -0.9071232288E-17 -0.6093426671E+00  0.6368264485E+15  0.1950816803E+01 -0.9505187873E-17 -0.6384869503E+00
  0.6570463033E+00  0.1000000000E+01  0.2570463033E+00  0.1479160832E+01 -0.3840617300E-17 -0.5392712692E+00  0.6368264485E+15  0.1476974344E+01 -0.3767551950E-17 -0.5679873175E+00
  0.5429536967E+00  0.1000000000E+01  0.2570463033E+00  0.1139662492E+01  0.2844774688E-17 -0.2777553106E+00  0.6368264485E+15  0.1129498363E+01  0.2679101923E-17 -0.3042613159E+00
  0.4469889352E+00  0.1000000000E+01  0.2570463033E+00  0.8043062039E+00  0.4268074656E-17 -0.3874769343E+00  0.6368264485E+15  0.7934570169E+00  0.3982277493E-17 -0.4101544236E+00
  0.4000000000E+00  0.1000000000E+01  0.2570463033E+00  0.7514970409E+00  0.3834784644E-17 -0.3452079295E+00  0.6368264485E+15  0.7464616165E+00  0.3835721396E-17 -0.3651817201E+00
  0.8000000000E+00  0.1000000000E+01  0.3530110648E+00  0.2302067937E+01  0.1012761165E-17 -0.1363246949E+01  0.6368264485E+15  0.2314035032E+01  0.9847997296E-18 -0.1391437520E+01
  0.7530110648E+00  0.1000000000E+01  0.3530110648E+00  0.2201861250E+01  0.4691501485E-17 -0.1134167172E+01  0.6368264485E+15  0.2209292353E+01  0.5087127501E-17 -0.1165550407E+01
  0.6570463033E+00  0.1000000000E+01  0.3530110648E+00  0.1685552838E+01 -0.1629812981E-17 -0.9384256196E+00  0.6368264485E+15  0.1683842506E+01 -0.1041784730E-17 -0.9744317172E+00
  0.5429536967E+00  0.1000000000E+01  0.3530110648E+00  0.1272570414E+01 -0.2778796267E-17 -0.6206533628E+00  0.6368264485E+15  0.1260079034E+01 -0.1684696295E-17 -0.6564539733E+00
  0.4469889352E+00  0.1000000000E+01  0.3530110648E+00  0.8645928586E+00  0.3563787413E-17 -0.6621106810E+00  0.6368264485E+15  0.8474716523E+00  0.3786763553E-17 -0.6917809803E+00
  0.4000000000E+00  0.1000000000E+01  0.3530110648E+00  0.8189965224E+00  0.4239841168E-17 -0.6228045508E+00  0.6368264485E+15  0.8036087768E+00  0.4253210342E-17 -0.6468134103E+00
  0.8000000000E+00  0.1000000000E+01  0.4000000000E+00  0.2394776830E+01 -0.4608840712E-17 -0.1660299096E+01  0.6368264485E+15  0.2409219489E+01 -0.4601257431E-17 -0.1694213956E+01
  0.7530110648E+00  0.1000000000E+01  0.4000000000E+00  0.2168985074E+01 -0.1659971011E-17 -0.1369116709E+01  0.6368264485E+15  0.2178778983E+01 -0.1556830659E-17 -0.1404493431E+01
  0.6570463033E+00  0.1000000000E+01  0.4000000000E+00  0.1700631072E+01  0.5296537284E-18 -0.1158884858E+01  0.6368264485E+15  0.1701047723E+01  0.3911241213E-18 -0.1198488167E+01
  0.5429536967E+00  0.1000000000E+01  0.4000000000E+00  0.1266471702E+01  0.7684078686E-17 -0.8455920644E+00  0.6368264485E+15  0.1251878643E+01  0.6822165134E-17 -0.8855533734E+00
  0.4469889352E+00  0.1000000000E+01  0.4000000000E+00  0.9310066803E+00  0.7814466067E-17 -0.8301205389E+00  0.6368264485E+15  0.9074500437E+00  0.7486058521E-17 -0.8578711306E+00
  0.4000000000E+00  0.1000000000E+01  0.4000000000E+00  0.7921261130E+00  0.6460772105E-17 -0.7619079074E+00  0.6368264485E+15  0.7708038311E+00  0.6468087792E-17 -0.7829225357E+00
ZONE I=6, J=6, K=1, F=POINT
  0.1200000000E+01  0.1000000000E+01  0.0000000000E+00 -0.3007840806E-01  0.5697592542E-19  0.3699512300E-01  0.6368264485E+15 -0.3039302131E-01  0.5908758205E-19  0.3667893834E-01
  0.1153011065E+01  0.1000000000E+01  0.0000000000E+00 -0.3084078668E-02 -0.1399852073E-18 -0.9617237634E-02  0.6368264485E+15 -0.3502310867E-02 -0.1569108483E-18 -0.9618602733E-02
  0.1057046303E+01  0.1000000000E+01  0.0000000000E+00  0.4105673725E-02  0.7008430129E-19  0.5756625741E-02  0.6368264485E+15  0.3798456838E-02  0.6147786889E-19  0.5779552580E-02
  0.9429536967E+00  0.1000000000E+01  0.0000000000E+00 -0.3083547235E-03  0.2154497423E-20 -0.8199209182E-02  0.6368264485E+15 -0.7551407926E-03  0.3239963290E-20 -0.8212447391E-02
  0.8469889352E+00  0.1000000000E+01  0.0000000000E+00  0.5288964019E-02 -0.2432001308E-19  0.5365619785E-02  0.6368264485E+15  0.4627644203E-02 -0.2363208960E-19  0.5265761550E-02
  0.8000000000E+00  0.1000000000E+01  0.0000000000E+00 -0.2552697219E-01 -0.9552274767E-19 -0.1141446548E-01  0.6368264485E+15 -0.2607861455E-01 -0.9740558081E-19 -0.1175144273E-01
  0.1200000000E+01  0.1000000000E+01  0.4698893521E-01  0.2201818032E+01 -0.4220992297E-16 -0.2209201222E+00  0.6368264485E+15  0.2205543506E+01 -0.4234635112E-16 -0.2299129044E+00
  0.1153011065E+01  0.1000000000E+01  0.4698893521E-01  0.1510793438E+01 -0.2642010241E-16 -0.7265493822E-01  0.6368264485E+15  0.1513956264E+01 -0.2650542392E-16 -0.8211069818E-01
  0.1057046303E+01  0.1000000000E+01  0.4698893521E-01  0.1370761743E+01 -0.1258745658E-16 -0.1006277687E+00  0.6368264485E+15  0.1374050582E+01 -0.1256354797E-16 -0.1114453451E+00
  0.9429536967E+00  0.1000000000E+01  0.4698893521E-01  0.7634714060E+00 -0.1502603397E-16 -0.8317145999E-01  0.6368264485E+15  0.7659439845E+00 -0.1509714965E-16 -0.9595729419E-01
  0.8469889352E+00  0.1000000000E+01  0.4698893521E-01  0.6619222171E+00 -0.2798520406E-16 -0.7798862889E-01  0.6368264485E+15  0.6635187001E+00 -0.2804430071E-16 -0.9015434241E-01
  0.8000000000E+00  0.1000000000E+01  0.4698893521E-01  0.2711541579E+00 -0.2309288427E-16  0.1237481577E-01  0.6368264485E+15  0.2736444705E+00 -0.2312530364E-16  0.8039351454E-03
  0.1200000000E+01  0.1000000000E+01  0.1429536967E+00  0.5087001852E+01 -0.5867241187E-16 -0.6420165782E+00  0.6368264485E+15  0.5096499323E+01 -0.5880273325E-16 -0.6572272887E+00
  0.1153011065E+01  0.1000000000E+01  0.1429536967E+00  0.3625214788E+01 -0.6858708815E-16 -0.8452465301E+00  0.6368264485E+15  0.3630655061E+01 -0.6822221599E-16 -0.8616411722E+00
  0.1057046303E+01  0.1000000000E+01  0.1429536967E+00  0.3234301186E+01 -0.3938015650E-16 -0.6185394617E+00  0.6368264485E+15  0.3240087387E+01 -0.3940989534E-16 -0.6374563245E+00
  0.9429536967E+00  0.1000000000E+01  0.1429536967E+00  0.1980081689E+01 -0.3490298276E-16 -0.7134151162E+00  0.6368264485E+15  0.1984514082E+01 -0.3491159384E-16 -0.7352489413E+00
  0.8469889352E+00  0.1000000000E+01  0.1429536967E+00  0.1698090901E+01 -0.5081200067E-16 -0.3590908672E+00  0.6368264485E+15  0.1699403618E+01 -0.5072320019E-16 -0.3836144965E+00
  0.8000000000E+00  0.1000000000E+01  0.1429536967E+00  0.9807294408E+00 -0.5653012724E-16 -0.3368850244E+00  0.6368264485E+15  0.9842075773E+00 -0.5647438654E-16 -0.3622763117E+00
  0.1200000000E+01  0.1000000000E+01  0.2570463033E+00  0.5315339040E+01 -0.6965802078E-17 -0.1739251730E+01  0.6368264485E+15  0.5324006384E+01 -0.6897635250E-17 -0.1745342837E+01
  0.1153011065E+01  0.1000000000E+01  0.2570463033E+00  0.4773747529E+01 -0.3844488142E-16 -0.1981158216E+01  0.6368264485E+15  0.4783978816E+01 -0.3958564855E-16 -0.1990581907E+01
  0.1057046303E+01  0.1000000000E+01  0.2570463033E+00  0.3937505053E+01 -0.3310402028E-16 -0.1573932790E+01  0.6368264485E+15  0.3946718632E+01 -0.3308846269E-16 -0.1588000238E+01
  0.9429536967E+00  0.1000000000E+01  0.2570463033E+00  0.2978375375E+01 -0.3083532008E-16 -0.1603892195E+01  0.6368264485E+15  0.2986946073E+01 -0.3126847923E-16 -0.1621034311E+01
  0.8469889352E+00  0.1000000000E+01  0.2570463033E+00  0.2438637588E+01 -0.1544682566E-16 -0.9539696901E+00  0.6368264485E+15  0.2447246112E+01 -0.1549055064E-16 -0.9781824606E+00
  0.8000000000E+00  0.1000000000E+01  0.2570463033E+00  0.2041858864E+01 -0.1406733546E-16 -0.8717402605E+00  0.6368264485E+15  0.2048456248E+01 -0.1404881031E-16 -0.8992163178E+00
  0.1200000000E+01  0.1000000000E+01  0.3530110648E+00  0.5560620013E+01  0.3220716265E-16 -0.2874511147E+01  0.6368264485E+15  0.5576426273E+01  0.3223154911E-16 -0.2879250390E+01
  0.1153011065E+01  0.1000000000E+01  0.3530110648E+00  0.4831724837E+01  0.1244683188E-16 -0.2791764131E+01  0.6368264485E+15  0.4849123721E+01  0.1223663225E-16 -0.2800059447E+01
  0.1057046303E+01  0.1000000000E+01  0.3530110648E+00  0.4112420236E+01 -0.9197192066E-17 -0.2405978588E+01  0.6368264485E+15  0.4124606534E+01 -0.9024715510E-17 -0.2418636924E+01
  0.9429536967E+00  0.1000000000E+01  0.3530110648E+00  0.3175662643E+01 -0.1503403203E-16 -0.2186039971E+01  0.6368264485E+15  0.3189161824E+01 -0.1532540350E-16 -0.2202363725E+01
  0.8469889352E+00  0.1000000000E+01  0.3530110648E+00  0.2715756668E+01 -0.3603257949E-17 -0.1561028019E+01  0.6368264485E+15  0.2733674169E+01 -0.2882426070E-17 -0.1585331228E+01
  0.8000000000E+00  0.1000000000E+01  0.3530110648E+00  0.2255009686E+01  0.1079211400E-17 -0.1363536631E+01  0.6368264485E+15  0.2268213544E+01  0.1053854663E-17 -0.1391741074E+01
  0.1200000000E+01  0.1000000000E+01  0.4000000000E+00  0.5255464755E+01  0.3834785092E-16 -0.3180418987E+01  0.6368264485E+15  0.5273428943E+01  0.3835147178E-16 -0.3194864168E+01
  0.1153011065E+01  0.1000000000E+01  0.4000000000E+00  0.4889888204E+01  0.2866376551E-16 -0.3284080774E+01  0.6368264485E+15  0.4909599478E+01  0.2896904130E-16 -0.3300750409E+01
  0.1057046303E+01  0.1000000000E+01  0.4000000000E+00  0.4036626175E+01  0.2900160038E-17 -0.2770220809E+01  0.6368264485E+15  0.4049797944E+01  0.2900709840E-17 -0.2788768274E+01
  0.9429536967E+00  0.1000000000E+01  0.4000000000E+00  0.3224402626E+01 -0.1333533909E-16 -0.2523219689E+01  0.6368264485E+15  0.3240465557E+01 -0.1395887179E-16 -0.2544696154E+01
  0.8469889352E+00  0.1000000000E+01  0.4000000000E+00  0.2654713836E+01 -0.9798040657E-17 -0.1822195838E+01  0.6368264485E+15  0.2677438093E+01 -0.9440147309E-17 -0.1851899709E+01
  0.8000000000E+00  0.1000000000E+01  0.4000000000E+00  0.2390403807E+01 -0.4582762160E-17 -0.1663598062E+01  0.6368264485E+15  0.2405837577E+01 -0.4578208541E-17 -0.1697118464E+01
ZONE I=6, J=6, K=1, F=POINT
  0.1600000000E+01  0.1000000000E+01  0.0000000000E+00  0.1316372535E+00 -0.9195948009E-18 -0.7178767578E-01  0.6368264485E+15  0.1300692111E+00 -0.1034698765E-17 -0.7120078082E-01
  0.1553011065E+01  0.1000000000E+01  0.0000000000E+00  0.1169294748E-01 -0.1375544444E-17  0.4533730789E-01  0.6368264485E+15  0.1093339052E-01 -0.1369265087E-17  0.4524076295E-01
  0.1457046303E+01  0.1000000000E+01  0.0000000000E+00 -0.5956192029E-02 -0.1233970449E-18 -0.3228672220E-02  0.6368264485E+15 -0.6511843672E-02 -0.1248943457E-18 -0.3248440111E-02
  0.1342953697E+01  0.1000000000E+01  0.0000000000E+00  0.6422219526E-02  0.4639607152E-18  0.2978308562E-01  0.6368264485E+15  0.5960665246E-02  0.4392062353E-18  0.2967139694E-01
  0.1246988935E+01  0.1000000000E+01  0.0000000000E+00 -0.6466788978E-02  0.1333579409E-18 -0.8212895563E-02  0.6368264485E+15 -0.6806827004E-02  0.1281352284E-18 -0.8217873333E-02
  0.1200000000E+01  0.1000000000E+01  0.0000000000E+00  0.5923389182E-01  0.6136999784E-19  0.3700574658E-01  0.6368264485E+15  0.5894668902E-01  0.6371589128E-19  0.3671012455E-01
  0.1600000000E+01  0.1000000000E+01  0.4698893521E-01  0.3001355293E+01 -0.8825957785E-16  0.2131560194E+00  0.6368264485E+15  0.3000919893E+01 -0.8825243002E-16  0.2232847232E+00
  0.1553011065E+01  0.1000000000E+01  0.4698893521E-01  0.3490562086E+01 -0.4378860608E-16 -0.2884511747E+00  0.6368264485E+15  0.3494339639E+01 -0.4368246716E-16 -0.2818332500E+00
  0.1457046303E+01  0.1000000000E+01  0.4698893521E-01  0.2517513952E+01 -0.4516513303E-17 -0.9698493821E-01  0.6368264485E+15  0.2521979815E+01 -0.4644639189E-17 -0.9789405141E-01
  0.1342953697E+01  0.1000000000E+01  0.4698893521E-01  0.2512875312E+01  0.2863709309E-16 -0.7284142282E-01  0.6368264485E+15  0.2515466682E+01  0.2865526451E-16 -0.7915873760E-01
  0.1246988935E+01  0.1000000000E+01  0.4698893521E-01  0.1935852210E+01 -0.6965047526E-17 -0.4554162413E-01  0.6368264485E+15  0.1938450988E+01 -0.6845917319E-17 -0.5394174315E-01
  0.1200000000E+01  0.1000000000E+01  0.4698893521E-01  0.2300023216E+01 -0.4641740100E-16 -0.2266069386E+00  0.6368264485E+15  0.2301756263E+01 -0.4652768848E-16 -0.2352186514E+00
  0.1600000000E+01  0.1000000000E+01  0.1429536967E+00  0.6344632530E+01 -0.2660463479E-15 -0.1819575456E+01  0.6368264485E+15  0.6334256909E+01 -0.2657117545E-15 -0.1811508541E+01
  0.1553011065E+01  0.1000000000E+01  0.1429536967E+00  0.8024708723E+01 -0.1420280850E-15 -0.9817846467E+00  0.6368264485E+15  0.8037456146E+01 -0.1426402196E-15 -0.9770710847E+00
  0.1457046303E+01  0.1000000000E+01  0.1429536967E+00  0.5958427113E+01  0.3214693097E-16 -0.9565086463E+00  0.6368264485E+15  0.5971834086E+01  0.3279422529E-16 -0.9609163426E+00
  0.1342953697E+01  0.1000000000E+01  0.1429536967E+00  0.5912588127E+01  0.1009740972E-15 -0.2305690035E+00  0.6368264485E+15  0.5919106229E+01  0.1012230545E-15 -0.2418125251E+00
  0.1246988935E+01  0.1000000000E+01  0.1429536967E+00  0.4541516285E+01  0.2599238077E-16 -0.7726732221E+00  0.6368264485E+15  0.4547184708E+01  0.2579544926E-16 -0.7865269927E+00
  0.1200000000E+01  0.1000000000E+01  0.1429536967E+00  0.5252971040E+01 -0.6282534035E-16 -0.6365938028E+00  0.6368264485E+15  0.5251466197E+01 -0.6282896345E-16 -0.6524950869E+00
  0.1600000000E+01  0.1000000000E+01  0.2570463033E+00  0.1122087319E+02  0.1028533192E-15 -0.3674507528E+01  0.6368264485E+15  0.1123745029E+02  0.1028283686E-15 -0.3684713009E+01
  0.1553011065E+01  0.1000000000E+01  0.2570463033E+00  0.1012053895E+02  0.1264439430E-15 -0.2586928300E+01  0.6368264485E+15  0.1014193350E+02  0.1262860662E-15 -0.2592788224E+01
  0.1457046303E+01  0.1000000000E+01  0.2570463033E+00  0.8724197927E+01  0.1865517825E-15 -0.2444757549E+01  0.6368264485E+15  0.8743411524E+01  0.1875468386E-15 -0.2451177778E+01
  0.1342953697E+01  0.1000000000E+01  0.2570463033E+00  0.7068261363E+01  0.1340180178E-15 -0.1267694726E+01  0.6368264485E+15  0.7078542552E+01  0.1345852279E-15 -0.1274824945E+01
  0.1246988935E+01  0.1000000000E+01  0.2570463033E+00  0.5799073562E+01  0.4288691127E-16 -0.1977967626E+01  0.6368264485E+15  0.5806313026E+01  0.4317342524E-16 -0.1983026647E+01
  0.1200000000E+01  0.1000000000E+01  0.2570463033E+00  0.5354761329E+01 -0.7242464318E-17 -0.1729862567E+01  0.6368264485E+15  0.5362950399E+01 -0.7171262253E-17 -0.1738603046E+01
  0.1600000000E+01  0.1000000000E+01  0.3530110648E+00  0.9654366269E+01  0.2041161808E-15 -0.4229111771E+01  0.6368264485E+15  0.9664230565E+01  0.2040010916E-15 -0.4240301657E+01
  0.1553011065E+01  0.1000000000E+01  0.3530110648E+00  0.9806226978E+01  0.2097120625E-15 -0.4148781917E+01  0.6368264485E+15  0.9824476664E+01  0.2098072937E-15 -0.4160063597E+01
  0.1457046303E+01  0.1000000000E+01  0.3530110648E+00  0.8539519257E+01  0.2003082820E-15 -0.3696005767E+01  0.6368264485E+15  0.8557909441E+01  0.2014459870E-15 -0.3704067029E+01
  0.1342953697E+01  0.1000000000E+01  0.3530110648E+00  0.7210635413E+01  0.1515181477E-15 -0.2823326092E+01  0.6368264485E+15  0.7219013409E+01  0.1518289692E-15 -0.2828626472E+01
  0.1246988935E+01  0.1000000000E+01  0.3530110648E+00  0.5768725200E+01  0.6413353983E-16 -0.2947147579E+01  0.6368264485E+15  0.5775575843E+01  0.6406222596E-16 -0.2950281586E+01
  0.1200000000E+01  0.1000000000E+01  0.3530110648E+00  0.5638499646E+01  0.3232910717E-16 -0.2874965356E+01  0.6368264485E+15  0.5650203885E+01  0.3231954731E-16 -0.2879395569E+01
  0.1600000000E+01  0.1000000000E+01  0.4000000000E+00  0.9806852254E+01  0.2057528500E-15 -0.4992613389E+01  0.6368264485E+15  0.9821604175E+01  0.2056481515E-15 -0.5008994067E+01
  0.1553011065E+01  0.1000000000E+01  0.4000000000E+00  0.9101983399E+01  0.2221152437E-15 -0.4224344659E+01  0.6368264485E+15  0.9121137310E+01  0.2218434081E-15 -0.4238686282E+01
  0.1457046303E+01  0.1000000000E+01  0.4000000000E+00  0.8402754189E+01  0.1938353851E-15 -0.4281242868E+01  0.6368264485E+15  0.8418768799E+01  0.1936721336E-15 -0.4291855976E+01
  0.1342953697E+01  0.1000000000E+01  0.4000000000E+00  0.6921850756E+01  0.1603655184E-15 -0.3255913775E+01  0.6368264485E+15  0.6931101276E+01  0.1606510598E-15 -0.3266694784E+01
  0.1246988935E+01  0.1000000000E+01  0.4000000000E+00  0.5849345103E+01  0.6515667093E-16 -0.3520831069E+01  0.6368264485E+15  0.5856044646E+01  0.6525079094E-16 -0.3533422946E+01
  0.1200000000E+01  0.1000000000E+01  0.4000000000E+00  0.5228686897E+01  0.3861402930E-16 -0.3168521401E+01  0.6368264485E+15  0.5247211661E+01  0.3860305333E-16 -0.3185607160E+01
ZONE I=6, J=6, K=1, F=POINT
  0.2000000000E+01  0.1000000000E+01  0.0000000000E+00  0.2402298002E+01  0.7399575168E-19  0.2123408194E+02  0.6368264484E+15  0.2430066160E+01  0.9446707520E-19  0.2215519085E+02
  0.1953011065E+01  0.1000000000E+01  0.0000000000E+00  0.1293383614E+01 -0.3737756556E-16 -0.1373049199E+00  0.6368264485E+15  0.1295973883E+01 -0.3608940917E-16 -0.1505866008E+00
  0.1857046303E+01  0.1000000000E+01  0.0000000000E+00 -0.3049843810E+00 -0.1871059918E-16  0.1518200466E+00  0.6368264485E+15 -0.3073820393E+00 -0.1930532992E-16  0.1502656505E+00
  0.1742953697E+01  0.1000000000E+01  0.0000000000E+00  0.1356316764E+00  0.2265089409E-18 -0.3736093485E-01  0.6368264485E+15  0.1346118731E+00  0.1092665506E-18 -0.3707898982E-01
  0.1646988935E+01  0.1000000000E+01  0.0000000000E+00 -0.1255913426E+00  0.3174260223E-18  0.6059930077E-01  0.6368264485E+15 -0.1268554019E+00  0.2901551962E-18  0.5975561423E-01
  0.1600000000E+01  0.1000000000E+01  0.0000000000E+00  0.8994300137E-01 -0.9986700653E-18 -0.8387871216E-01  0.6368264485E+15  0.8853211521E-01 -0.1115639245E-17 -0.8189997651E-01
  0.2000000000E+01  0.1000000000E+01  0.4698893521E-01 -0.1219007099E-01  0.7476627921E-18  0.4848431961E+02  0.6368264485E+15 -0.5499475321E-01  0.6875584233E-18  0.4865787108E+02
  0.1953011065E+01  0.1000000000E+01  0.4698893521E-01  0.1096186308E+02  0.1362337426E-15  0.1467115649E+01  0.6368264485E+15  0.1094948708E+02  0.1350223480E-15  0.1484474935E+01
  0.1857046303E+01  0.1000000000E+01  0.4698893521E-01  0.1164280004E+02  0.2891479120E-15 -0.1889546754E+01  0.6368264485E+15  0.1164367825E+02  0.2893518283E-15 -0.1885982590E+01
  0.1742953697E+01  0.1000000000E+01  0.4698893521E-01  0.5761233117E+01 -0.4020902410E-16 -0.6517267563E+00  0.6368264485E+15  0.5762400872E+01 -0.3985166352E-16 -0.6494271310E+00
  0.1646988935E+01  0.1000000000E+01  0.4698893521E-01  0.4468124934E+01 -0.1220640370E-15 -0.6413982605E+00  0.6368264485E+15  0.4464828023E+01 -0.1220940738E-15 -0.6307956761E+00
  0.1600000000E+01  0.1000000000E+01  0.4698893521E-01  0.2837680012E+01 -0.8541906469E-16  0.1989856593E+00  0.6368264485E+15  0.2846409633E+01 -0.8522544431E-16  0.2038080612E+00
  0.2000000000E+01  0.1000000000E+01  0.1429536967E+00 -0.2818508019E+00  0.2724933536E-17  0.5050508958E+02  0.6368264485E+15 -0.2573923346E+00  0.2748237515E-17  0.5044019057E+02
  0.1953011065E+01  0.1000000000E+01  0.1429536967E+00  0.2792453467E+01 -0.5125498352E-15  0.1639120192E+02  0.6368264485E+15  0.2776841505E+01 -0.5126240139E-15  0.1642771584E+02
  0.1857046303E+01  0.1000000000E+01  0.1429536967E+00  0.1272283789E+02 -0.2614591468E-15 -0.3616203134E+01  0.6368264485E+15  0.1271793456E+02 -0.2613880807E-15 -0.3607349405E+01
  0.1742953697E+01  0.1000000000E+01  0.1429536967E+00  0.9996255972E+01 -0.2485691914E-16 -0.4077369395E+01  0.6368264485E+15  0.9991079374E+01 -0.2587736036E-16 -0.4073521336E+01
  0.1646988935E+01  0.1000000000E+01  0.1429536967E+00  0.9339947696E+01 -0.1596402731E-15 -0.2074745183E+01  0.6368264485E+15  0.9334125481E+01 -0.1594589791E-15 -0.2064621864E+01
  0.1600000000E+01  0.1000000000E+01  0.1429536967E+00  0.5973471567E+01 -0.2825798155E-15 -0.1819615542E+01  0.6368264485E+15  0.6002904180E+01 -0.2826379349E-15 -0.1816120721E+01
  0.2000000000E+01  0.1000000000E+01  0.2570463033E+00  0.1914742691E-01  0.1119718862E-17  0.4987430630E+02  0.6368264485E+15  0.1815899844E-01  0.1080830880E-17  0.4987751673E+02