TITLE = "Generated from ../MESH/Convergence_0000000000.hmesh and Convergence_0000008000.hsol"
VARIABLES = "x","y","z","veloT_x","veloT_y","veloT_z","slr_4","velo_x","velo_y","velo_z"
ZONE I=6, J=6, K=1, F=POINT
  0.4000000000E+00  0.1000000000E+01  0.0000000000E+00 -0.3381916853E-01  0.1628472900E-19  0.7695268553E-02  0.1021077104E+16 -0.1491122555E-01  0.1929593396E-19  0.7661123309E-02
  0.3530110648E+00  0.1000000000E+01  0.0000000000E+00 -0.2257114229E-01  0.1086830386E-19  0.1178419241E-03  0.1021077104E+16 -0.2644284044E-02  0.2899509777E-20 -0.7346857007E-04
  0.2570463033E+00  0.1000000000E+01  0.0000000000E+00 -0.1574805035E-01  0.2565259575E-20  0.3110238653E-02  0.1021077104E+16  0.3084722952E-03 -0.1574162783E-20  0.2655398752E-02
  0.1429536967E+00  0.1000000000E+01  0.0000000000E+00 -0.1435793289E-01  0.1244070841E-20 -0.1131197820E-02  0.1021077104E+16 -0.2242687546E-03 -0.1488019848E-21 -0.1258644718E-02
  0.4698893521E-01  0.1000000000E+01  0.0000000000E+00 -0.8492856462E-02 -0.3732210889E-20  0.3687979320E-02  0.1021077104E+16  0.1787998641E-02 -0.3982527019E-20  0.2673719400E-02
  0.0000000000E+00  0.1000000000E+01  0.0000000000E+00 -0.8922120865E-02  0.3726049842E-22  0.3450549221E-02  0.1021077104E+16 -0.7996231547E-02  0.3147967955E-22  0.2485540549E-02
  0.4000000000E+00  0.1000000000E+01  0.4698893521E-01  0.2115204589E+00  0.3859809456E-17 -0.9537004003E-01  0.1021077104E+16  0.2344273227E+00  0.3727265007E-17  0.3358907982E-01
  0.3530110648E+00  0.1000000000E+01  0.4698893521E-01  0.6974759801E-01  0.3859373312E-17 -0.4214156639E-01  0.1021077104E+16  0.9670679315E-01  0.3435621130E-17  0.6978654749E-01
  0.2570463033E+00  0.1000000000E+01  0.4698893521E-01  0.4876335808E-01  0.1421622434E-17 -0.3070678402E-01  0.1021077104E+16  0.7385073556E-01  0.1504035645E-17  0.4740987412E-01
  0.1429536967E+00  0.1000000000E+01  0.4698893521E-01 -0.4313228168E-01  0.3248456059E-18  0.5007062493E-02  0.1021077104E+16 -0.1758056592E-01  0.4187047994E-18  0.4221009855E-01
  0.4698893521E-01  0.1000000000E+01  0.4698893521E-01 -0.3355560200E-01  0.6859938758E-19  0.2072869869E-01  0.1021077104E+16 -0.1562612346E-01  0.7848915695E-19  0.2041440111E-01
  0.0000000000E+00  0.1000000000E+01  0.4698893521E-01 -0.1958235249E-01  0.1647676332E-20  0.1253254871E-01  0.1021077104E+16 -0.1874369141E-01  0.1298073897E-20  0.2732821545E-02
  0.4000000000E+00  0.1000000000E+01  0.1429536967E+00  0.5562792732E+00  0.9510951962E-17 -0.2302979973E+00  0.1021077104E+16  0.6077808172E+00  0.1025923565E-16 -0.6648877195E-01
  0.3530110648E+00  0.1000000000E+01  0.1429536967E+00  0.2892643399E+00  0.7597374090E-17 -0.2529833380E+00  0.1021077104E+16  0.3557388687E+00  0.6542836853E-17 -0.1025615277E+00
  0.2570463033E+00  0.1000000000E+01  0.1429536967E+00  0.1697033831E+00  0.3178401319E-17 -0.1533883553E+00  0.1021077104E+16  0.2355699483E+00  0.3267116497E-17 -0.4171286108E-01
  0.1429536967E+00  0.1000000000E+01  0.1429536967E+00 -0.3676497167E-01  0.1350518734E-17 -0.1088807848E+00  0.1021077104E+16  0.3994082106E-01  0.1383748812E-17 -0.5408177590E-01
  0.4698893521E-01  0.1000000000E+01  0.1429536967E+00 -0.4537119315E-01  0.2278126266E-18  0.2293324202E-01  0.1021077104E+16  0.1299092850E-01  0.2195951646E-18  0.2243450286E-01
  0.0000000000E+00  0.1000000000E+01  0.1429536967E+00 -0.2074887338E-01  0.3254998013E-20  0.9570597995E-02  0.1021077104E+16 -0.2098125017E-01  0.1634774289E-20 -0.2063747182E-02
  0.4000000000E+00  0.1000000000E+01  0.2570463033E+00  0.6818821216E+00  0.5301641725E-17 -0.5719425397E+00  0.1021077104E+16  0.7502292952E+00  0.5364989601E-17 -0.4378240800E+00
  0.3530110648E+00  0.1000000000E+01  0.2570463033E+00  0.4921839986E+00  0.3422960268E-17 -0.5688387392E+00  0.1021077104E+16  0.5876571407E+00  0.5194511489E-17 -0.4456209694E+00
  0.2570463033E+00  0.1000000000E+01  0.2570463033E+00  0.2470982385E+00  0.3089886235E-17 -0.3812227704E+00  0.1021077104E+16  0.3553198442E+00  0.3066096934E-17 -0.2826373914E+00
  0.1429536967E+00  0.1000000000E+01  0.2570463033E+00 -0.7430361309E-02  0.2102836430E-17 -0.2986304255E+00  0.1021077104E+16  0.1338804323E+00  0.2080536082E-17 -0.2528300591E+00
  0.4698893521E-01  0.1000000000E+01  0.2570463033E+00 -0.4295599232E-01  0.1535365606E-17 -0.2993327197E-01  0.1021077104E+16  0.6411442929E-01  0.1454164271E-17 -0.3588453516E-01
  0.0000000000E+00  0.1000000000E+01  0.2570463033E+00 -0.1392817113E-01 -0.8104047920E-20  0.4603359858E-02  0.1021077104E+16 -0.1395158587E-01 -0.5090494842E-20 -0.4865589576E-02
  0.4000000000E+00  0.1000000000E+01  0.3530110648E+00  0.6760022089E+00  0.5542851249E-17 -0.9161444296E+00  0.1021077104E+16  0.7954664333E+00  0.5420272010E-17 -0.7221362641E+00
  0.3530110648E+00  0.1000000000E+01  0.3530110648E+00  0.5261387737E+00  0.4733656810E-17 -0.8641318820E+00  0.1021077104E+16  0.6538746390E+00  0.4767875202E-17 -0.6998268354E+00
  0.2570463033E+00  0.1000000000E+01  0.3530110648E+00  0.2747796608E+00  0.2856222443E-17 -0.6318859660E+00  0.1021077104E+16  0.4204754832E+00  0.1138306980E-17 -0.5121611299E+00
  0.1429536967E+00  0.1000000000E+01  0.3530110648E+00 -0.1650942317E-01  0.2269602849E-17 -0.4605349481E+00  0.1021077104E+16  0.1854674744E+00  0.1864138376E-17 -0.4115484647E+00
  0.4698893521E-01  0.1000000000E+01  0.3530110648E+00 -0.4726466446E-01  0.5227766226E-18 -0.1009863769E+00  0.1021077104E+16  0.9914878399E-01  0.6296407913E-18 -0.1124390309E+00
  0.0000000000E+00  0.1000000000E+01  0.3530110648E+00 -0.1366512399E-01  0.4408343280E-20  0.7397998275E-03  0.1021077104E+16 -0.1388027800E-01  0.7402800066E-20 -0.8623070811E-02
  0.4000000000E+00  0.1000000000E+01  0.4000000000E+00  0.6702403335E+00  0.6701398964E-17 -0.1065779230E+01  0.1021077104E+16  0.8313800773E+00  0.6672290963E-17 -0.8234091928E+00
  0.3530110648E+00  0.1000000000E+01  0.4000000000E+00  0.5752468515E+00  0.6130933337E-17 -0.1040527201E+01  0.1021077104E+16  0.7325076238E+00  0.5589229904E-17 -0.8365215890E+00
  0.2570463033E+00  0.1000000000E+01  0.4000000000E+00  0.2832736830E+00  0.1986389204E-17 -0.7871250052E+00  0.1021077104E+16  0.4566658507E+00  0.2722574463E-17 -0.6496662780E+00
  0.1429536967E+00  0.1000000000E+01  0.4000000000E+00 -0.1235375483E-01  0.2321427354E-17 -0.5607922115E+00  0.1021077104E+16  0.2243662990E+00  0.2765853490E-17 -0.5067721482E+00
  0.4698893521E-01  0.1000000000E+01  0.4000000000E+00 -0.5326898019E-01  0.5820257657E-18 -0.1462960904E+00  0.1021077104E+16  0.1146014377E+00  0.6258808174E-18 -0.1568163914E+00
  0.0000000000E+00  0.1000000000E+01  0.4000000000E+00 -0.5846744828E-02  0.1098676781E-19 -0.4878422402E-02  0.1021077104E+16 -0.5982366686E-02  0.8832377285E-20 -0.1151915743E-01
ZONE I=6, J=6, K=1, F=POINT
  0.8000000000E+00  0.1000000000E+01  0.0000000000E+00 -0.3087441851E-01 -0.1034879249E-18 -0.1074277184E-01  0.1021077104E+16  0.4257721568E-02 -0.1156704005E-18 -0.1093050078E-01
  0.7530110648E+00  0.1000000000E+01  0.0000000000E+00 -0.4387395718E-01 -0.9748114263E-18  0.6944315135E-02  0.1021077104E+16 -0.9360761650E-02 -0.2316690463E-18  0.6620384331E-02
  0.6570463033E+00  0.1000000000E+01  0.0000000000E+00 -0.4005735747E-01 -0.4914948869E-18  0.1625453865E-02  0.1021077104E+16 -0.8357069115E-02 -0.6991556745E-19  0.9837813325E-03
  0.5429536967E+00  0.1000000000E+01  0.0000000000E+00 -0.3080171242E-01 -0.7953297955E-18  0.8671113742E-02  0.1021077104E+16 -0.4853744236E-02 -0.1134016178E-18  0.7732195751E-02
  0.4469889352E+00  0.1000000000E+01  0.0000000000E+00 -0.2717971232E-01 -0.8113273411E-18  0.1827134415E-02  0.1021077104E+16 -0.6185361142E-02 -0.1706302844E-18  0.1249190548E-02
  0.4000000000E+00  0.1000000000E+01  0.0000000000E+00 -0.7422348869E-02  0.2030567694E-19  0.7384919207E-02  0.1021077104E+16  0.1196631495E-01  0.2295986604E-19  0.7342353881E-02
  0.8000000000E+00  0.1000000000E+01  0.4698893521E-01  0.3230282022E+00 -0.2127665157E-16 -0.7975112635E-01  0.1021077104E+16  0.3288831256E+00 -0.2127471622E-16  0.7484449104E-01
  0.7530110648E+00  0.1000000000E+01  0.4698893521E-01  0.5135160014E+00 -0.1587937524E-16 -0.1401097455E+00  0.1021077104E+16  0.5246719926E+00 -0.1675451568E-16  0.1887799986E-01
  0.6570463033E+00  0.1000000000E+01  0.4698893521E-01  0.2799465011E+00 -0.4990797232E-17 -0.1208385831E+00  0.1021077104E+16  0.2959784710E+00 -0.4537600024E-17  0.4154171162E-01
  0.5429536967E+00  0.1000000000E+01  0.4698893521E-01  0.2915158843E+00  0.3422415156E-17 -0.1098859045E+00  0.1021077104E+16  0.3090974385E+00  0.3821478681E-17  0.4960612068E-01
  0.4469889352E+00  0.1000000000E+01  0.4698893521E-01  0.1502425449E+00  0.4973078279E-17 -0.7248250928E-01  0.1021077104E+16  0.1706367278E+00  0.4723350461E-17  0.7060869924E-01
  0.4000000000E+00  0.1000000000E+01  0.4698893521E-01  0.2535925338E+00  0.3625438035E-17 -0.9614095566E-01  0.1021077104E+16  0.2768042160E+00  0.3491420474E-17  0.3282968402E-01
  0.8000000000E+00  0.1000000000E+01  0.1429536967E+00  0.1274889649E+01 -0.5388246598E-16 -0.5670679977E+00  0.1021077104E+16  0.1261773920E+01 -0.5410043609E-16 -0.3934492867E+00
  0.7530110648E+00  0.1000000000E+01  0.1429536967E+00  0.1542078470E+01 -0.2915100060E-16 -0.4174798363E+00  0.1021077104E+16  0.1544588485E+01 -0.3036975958E-16 -0.2370301955E+00
  0.6570463033E+00  0.1000000000E+01  0.1429536967E+00  0.1030028128E+01  0.2647729350E-17 -0.3909046028E+00  0.1021077104E+16  0.1048294759E+01  0.1998196000E-17 -0.2114062954E+00
  0.5429536967E+00  0.1000000000E+01  0.1429536967E+00  0.8734097577E+00  0.8235977440E-17 -0.2105029392E+00  0.1021077104E+16  0.8980622108E+00  0.9056529913E-17 -0.4015478456E-01
  0.4469889352E+00  0.1000000000E+01  0.1429536967E+00  0.5085086527E+00  0.1209645762E-16 -0.2665933874E+00  0.1021077104E+16  0.5457935681E+00  0.1100111639E-16 -0.9843083670E-01
  0.4000000000E+00  0.1000000000E+01  0.1429536967E+00  0.6078092767E+00  0.1020065639E-16 -0.2297832756E+00  0.1021077104E+16  0.6592194928E+00  0.1094386734E-16 -0.6595020462E-01
  0.8000000000E+00  0.1000000000E+01  0.2570463033E+00  0.2552915053E+01 -0.9405565710E-17 -0.1276002805E+01  0.1021077104E+16  0.2521739442E+01 -0.9580127382E-17 -0.1106726874E+01
  0.7530110648E+00  0.1000000000E+01  0.2570463033E+00  0.2359558779E+01 -0.7454680699E-17 -0.1017190860E+01  0.1021077104E+16  0.2356276161E+01 -0.4987570092E-17 -0.8448532309E+00
  0.6570463033E+00  0.1000000000E+01  0.2570463033E+00  0.1767471356E+01  0.2334554155E-17 -0.9569934923E+00  0.1021077104E+16  0.1795480722E+01  0.1511116855E-17 -0.7844010023E+00
  0.5429536967E+00  0.1000000000E+01  0.2570463033E+00  0.1259100889E+01  0.2878157478E-17 -0.6848506093E+00  0.1021077104E+16  0.1290693580E+01  0.3380569262E-17 -0.5174660537E+00
  0.4469889352E+00  0.1000000000E+01  0.2570463033E+00  0.7962563160E+00  0.3981115653E-17 -0.6857955159E+00  0.1021077104E+16  0.8386684268E+00  0.5846180232E-17 -0.5385426179E+00
  0.4000000000E+00  0.1000000000E+01  0.2570463033E+00  0.7128842430E+00  0.5311221176E-17 -0.5712942351E+00  0.1021077104E+16  0.7809992334E+00  0.5376978356E-17 -0.4372102181E+00
  0.8000000000E+00  0.1000000000E+01  0.3530110648E+00  0.2982474014E+01  0.3370351043E-17 -0.1911779531E+01  0.1021077104E+16  0.2931658665E+01  0.3254755548E-17 -0.1635013110E+01
  0.7530110648E+00  0.1000000000E+01  0.3530110648E+00  0.2799097096E+01  0.8816114595E-18 -0.1676040707E+01  0.1021077104E+16  0.2790671634E+01  0.5881611170E-18 -0.1390401205E+01
  0.6570463033E+00  0.1000000000E+01  0.3530110648E+00  0.2195117543E+01  0.4707112923E-17 -0.1520134486E+01  0.1021077104E+16  0.2194687449E+01 -0.1733969644E-19 -0.1189857119E+01
  0.5429536967E+00  0.1000000000E+01  0.3530110648E+00  0.1458491699E+01  0.1263207892E-16 -0.1245968868E+01  0.1021077104E+16  0.1513034026E+01  0.5969912684E-17 -0.8687528468E+00
  0.4469889352E+00  0.1000000000E+01  0.3530110648E+00  0.7379082361E+00  0.5589264577E-17 -0.1081107048E+01  0.1021077104E+16  0.8674925078E+00  0.3599863439E-17 -0.8194997249E+00
  0.4000000000E+00  0.1000000000E+01  0.3530110648E+00  0.7103114144E+00  0.5544709238E-17 -0.9161671211E+00  0.1021077104E+16  0.8291885263E+00  0.5434818147E-17 -0.7220333338E+00
  0.8000000000E+00  0.1000000000E+01  0.4000000000E+00  0.3163627488E+01 -0.5407265760E-17 -0.2242182243E+01  0.1021077104E+16  0.3084716503E+01 -0.5375759930E-17 -0.1938325324E+01
  0.7530110648E+00  0.1000000000E+01  0.4000000000E+00  0.2827303235E+01 -0.2106966146E-17 -0.1928493471E+01  0.1021077104E+16  0.2807348373E+01 -0.3410128563E-17 -0.1602658604E+01
  0.6570463033E+00  0.1000000000E+01  0.4000000000E+00  0.2320837610E+01 -0.4944489949E-18 -0.1696845738E+01  0.1021077104E+16  0.2267561322E+01  0.1344498063E-17 -0.1276576839E+01
  0.5429536967E+00  0.1000000000E+01  0.4000000000E+00  0.1481854668E+01  0.2056679531E-17 -0.1411149286E+01  0.1021077104E+16  0.1555574459E+01  0.8574444819E-17 -0.8852285973E+00
  0.4469889352E+00  0.1000000000E+01  0.4000000000E+00  0.7315619106E+00 -0.1899645689E-17 -0.1214078122E+01  0.1021077104E+16  0.9670107439E+00  0.1506443549E-17 -0.8715367345E+00
  0.4000000000E+00  0.1000000000E+01  0.4000000000E+00  0.6838285538E+00  0.6762763154E-17 -0.1065482120E+01  0.1021077104E+16  0.8453963315E+00  0.6734076788E-17 -0.8229200204E+00
ZONE I=6, J=6, K=1, F=POINT
  0.1200000000E+01  0.1000000000E+01  0.0000000000E+00 -0.9541577300E-01  0.4166276001E-19  0.3652429001E-01  0.1021077104E+16 -0.6283386278E-01  0.3374308108E-19  0.3665665210E-01
  0.1153011065E+01  0.1000000000E+01  0.0000000000E+00 -0.6800063611E-01 -0.3128191068E-17 -0.9462709046E-02  0.1021077104E+16 -0.3419596508E-01 -0.1704763629E-17 -0.9246080070E-02
  0.1057046303E+01  0.1000000000E+01  0.0000000000E+00 -0.5841734936E-01 -0.1544251662E-17  0.6318148911E-02  0.1021077104E+16 -0.2318057323E-01 -0.6295115274E-18  0.6420173319E-02
  0.9429536967E+00  0.1000000000E+01  0.0000000000E+00 -0.5824011328E-01 -0.2881017297E-19 -0.7765077809E-02  0.1021077104E+16 -0.2250138530E-01 -0.4987630343E-19 -0.7701055162E-02
  0.8469889352E+00  0.1000000000E+01  0.0000000000E+00 -0.4806163576E-01 -0.2081522554E-19  0.6157827984E-02  0.1021077104E+16 -0.1252214407E-01 -0.3083363297E-19  0.5930371934E-02
  0.8000000000E+00  0.1000000000E+01  0.0000000000E+00 -0.7633571780E-01 -0.1167917849E-18 -0.1021444081E-01  0.1021077104E+16 -0.4123173961E-01 -0.1282150106E-18 -0.1038824961E-01
  0.1200000000E+01  0.1000000000E+01  0.4698893521E-01  0.2265758264E+01 -0.3695048075E-16 -0.3202184543E+00  0.1021077104E+16  0.2237146318E+01 -0.3578250889E-16 -0.2806421655E+00
  0.1153011065E+01  0.1000000000E+01  0.4698893521E-01  0.1566923660E+01 -0.2190249995E-16 -0.1724114521E+00  0.1021077104E+16  0.1537064296E+01 -0.2109064775E-16 -0.1210577261E+00
  0.1057046303E+01  0.1000000000E+01  0.4698893521E-01  0.1414575323E+01 -0.1305553525E-16 -0.2031969219E+00  0.1021077104E+16  0.1393085165E+01 -0.1317024662E-16 -0.1193646744E+00
  0.9429536967E+00  0.1000000000E+01  0.4698893521E-01  0.7803956477E+00 -0.1034621126E-16 -0.1843488726E+00  0.1021077104E+16  0.7699416481E+00 -0.1000125431E-16 -0.6694361604E-01
  0.8469889352E+00  0.1000000000E+01  0.4698893521E-01  0.6597631122E+00 -0.2128382766E-16 -0.1704096040E+00  0.1021077104E+16  0.6577954108E+00 -0.2133985391E-16 -0.2541049674E-01
  0.8000000000E+00  0.1000000000E+01  0.4698893521E-01  0.2616971960E+00 -0.2055283865E-16 -0.7764412667E-01  0.1021077104E+16  0.2677932512E+00 -0.2054781567E-16  0.7686390884E-01
  0.1200000000E+01  0.1000000000E+01  0.1429536967E+00  0.5514552697E+01 -0.5692078171E-16 -0.8098722861E+00  0.1021077104E+16  0.5469332075E+01 -0.5564782223E-16 -0.7734695639E+00
  0.1153011065E+01  0.1000000000E+01  0.1429536967E+00  0.4044698964E+01 -0.7403597930E-16 -0.1026757057E+01  0.1021077104E+16  0.3980008196E+01 -0.7792862325E-16 -0.9763736401E+00
  0.1057046303E+01  0.1000000000E+01  0.1429536967E+00  0.3619417429E+01 -0.3606950754E-16 -0.8269546434E+00  0.1021077104E+16  0.3557865721E+01 -0.3590861316E-16 -0.7384871838E+00
  0.9429536967E+00  0.1000000000E+01  0.1429536967E+00  0.2280737016E+01 -0.3144103010E-16 -0.9460172828E+00  0.1021077104E+16  0.2236024599E+01 -0.3130351208E-16 -0.8112487437E+00
  0.8469889352E+00  0.1000000000E+01  0.1429536967E+00  0.1928796526E+01 -0.4330960830E-16 -0.5888866137E+00  0.1021077104E+16  0.1899341510E+01 -0.4347381950E-16 -0.4258014386E+00
  0.8000000000E+00  0.1000000000E+01  0.1429536967E+00  0.1191189034E+01 -0.5614062541E-16 -0.5686622158E+00  0.1021077104E+16  0.1179774745E+01 -0.5640517341E-16 -0.3950560543E+00
  0.1200000000E+01  0.1000000000E+01  0.2570463033E+00  0.6189918292E+01 -0.1313945358E-16 -0.1944634773E+01  0.1021077104E+16  0.6112913225E+01 -0.1298334201E-16 -0.1899744990E+01
  0.1153011065E+01  0.1000000000E+01  0.2570463033E+00  0.5630119491E+01 -0.3043888349E-16 -0.2227050926E+01  0.1021077104E+16  0.5530358927E+01 -0.1911443966E-16 -0.2169791564E+01
  0.1057046303E+01  0.1000000000E+01  0.2570463033E+00  0.4725513145E+01 -0.3134838436E-16 -0.1882964056E+01  0.1021077104E+16  0.4620785046E+01 -0.3151053853E-16 -0.1792679111E+01
  0.9429536967E+00  0.1000000000E+01  0.2570463033E+00  0.3635634301E+01 -0.2105353230E-16 -0.1957550137E+01  0.1021077104E+16  0.3553229334E+01 -0.1672573376E-16 -0.1826995369E+01
  0.8469889352E+00  0.1000000000E+01  0.2570463033E+00  0.2970087368E+01 -0.1713730338E-16 -0.1344517960E+01  0.1021077104E+16  0.2917138282E+01 -0.1673900624E-16 -0.1184410781E+01
  0.8000000000E+00  0.1000000000E+01  0.2570463033E+00  0.2514886121E+01 -0.9527841346E-17 -0.1278680746E+01  0.1021077104E+16  0.2484178259E+01 -0.9606916054E-17 -0.1108959388E+01
  0.1200000000E+01  0.1000000000E+01  0.3530110648E+00  0.6793024153E+01  0.1868221148E-16 -0.3131688410E+01  0.1021077104E+16  0.6692345299E+01  0.1879903707E-16 -0.3058907685E+01
  0.1153011065E+01  0.1000000000E+01  0.3530110648E+00  0.6040696806E+01  0.4194532889E-17 -0.3116578443E+01  0.1021077104E+16  0.5904618323E+01  0.6028170822E-17 -0.3026369517E+01
  0.1057046303E+01  0.1000000000E+01  0.3530110648E+00  0.5206711872E+01 -0.1084516684E-16 -0.2833547827E+01  0.1021077104E+16  0.5064310947E+01 -0.1259467905E-16 -0.2699793939E+01
  0.9429536967E+00  0.1000000000E+01  0.3530110648E+00  0.4121911667E+01 -0.1116720759E-16 -0.2673172902E+01  0.1021077104E+16  0.3997070396E+01 -0.8677405550E-17 -0.2482590364E+01
  0.8469889352E+00  0.1000000000E+01  0.3530110648E+00  0.3514105638E+01 -0.2201730281E-17 -0.2091296470E+01  0.1021077104E+16  0.3420894459E+01 -0.7044252407E-17 -0.1839839784E+01
  0.8000000000E+00  0.1000000000E+01  0.3530110648E+00  0.2934300404E+01  0.3410185078E-17 -0.1912115952E+01  0.1021077104E+16  0.2885313933E+01  0.3365480424E-17 -0.1635366124E+01
  0.1200000000E+01  0.1000000000E+01  0.4000000000E+00  0.6643475708E+01  0.1918973185E-16 -0.3450901608E+01  0.1021077104E+16  0.6527152380E+01  0.1929950290E-16 -0.3392001054E+01
  0.1153011065E+01  0.1000000000E+01  0.4000000000E+00  0.6253652062E+01  0.1325600059E-16 -0.3631290698E+01  0.1021077104E+16  0.6097959501E+01  0.9654814891E-17 -0.3557570969E+01
  0.1057046303E+01  0.1000000000E+01  0.4000000000E+00  0.5267478719E+01 -0.7569341793E-17 -0.3254574486E+01  0.1021077104E+16  0.5102136186E+01 -0.9346557137E-17 -0.3139296974E+01
  0.9429536967E+00  0.1000000000E+01  0.4000000000E+00  0.4289630263E+01 -0.1690823441E-16 -0.3091753758E+01  0.1021077104E+16  0.4133689093E+01 -0.1291173573E-16 -0.2902965287E+01
  0.8469889352E+00  0.1000000000E+01  0.4000000000E+00  0.3558501097E+01 -0.1189840020E-16 -0.2399968882E+01  0.1021077104E+16  0.3430791940E+01 -0.1344084783E-16 -0.2136889653E+01
  0.8000000000E+00  0.1000000000E+01  0.4000000000E+00  0.3159108905E+01 -0.5383172944E-17 -0.2245983242E+01  0.1021077104E+16  0.3080181659E+01 -0.5324222963E-17 -0.1941484146E+01
ZONE I=6, J=6, K=1, F=POINT
  0.1600000000E+01  0.1000000000E+01  0.0000000000E+00  0.6156872987E-01 -0.9584543883E-18 -0.6945375806E-01  0.1021077104E+16  0.8011567121E-01 -0.1122042190E-17 -0.6833995742E-01
  0.1553011065E+01  0.1000000000E+01  0.0000000000E+00 -0.5754248644E-01  0.1954969672E-17  0.4545759819E-01  0.1021077104E+16 -0.3800926828E-01  0.1058353516E-17  0.4556948147E-01
  0.1457046303E+01  0.1000000000E+01  0.0000000000E+00 -0.7369262121E-01  0.1453121578E-17 -0.3159674554E-02  0.1021077104E+16 -0.5055588659E-01  0.8578868270E-18 -0.2596451956E-02
  0.1342953697E+01  0.1000000000E+01  0.0000000000E+00 -0.5986146420E-01 -0.3207397488E-17  0.2986049829E-01  0.1021077104E+16 -0.3219863763E-01 -0.1687960166E-17  0.3017827238E-01
  0.1246988935E+01  0.1000000000E+01  0.0000000000E+00 -0.7171647387E-01 -0.1546462544E-18 -0.8101924418E-02  0.1021077104E+16 -0.4098205875E-01  0.8941266293E-19 -0.7696783518E-02
  0.1200000000E+01  0.1000000000E+01  0.0000000000E+00 -0.6022933919E-02  0.3104513731E-19  0.3652780755E-01  0.1021077104E+16  0.2658717520E-01  0.2613058526E-19  0.3665641264E-01
  0.1600000000E+01  0.1000000000E+01  0.4698893521E-01  0.2880359783E+01 -0.8618224156E-16  0.1330878879E+00  0.1021077104E+16  0.2808248133E+01 -0.8457623563E-16  0.2373852381E+00
  0.1553011065E+01  0.1000000000E+01  0.4698893521E-01  0.3428174397E+01 -0.4785895453E-16 -0.3750750945E+00  0.1021077104E+16  0.3368934448E+01 -0.4970193512E-16 -0.2816797155E+00
  0.1457046303E+01  0.1000000000E+01  0.4698893521E-01  0.2520591133E+01 -0.2515842747E-17 -0.2034901542E+00  0.1021077104E+16  0.2470176717E+01 -0.9386096703E-18 -0.1416810242E+00
  0.1342953697E+01  0.1000000000E+01  0.4698893521E-01  0.2568397247E+01  0.2621501920E-16 -0.1761933370E+00  0.1021077104E+16  0.2528504305E+01  0.2588374577E-16 -0.1279260412E+00
  0.1246988935E+01  0.1000000000E+01  0.4698893521E-01  0.2002737357E+01 -0.1314132736E-16 -0.1473610817E+00  0.1021077104E+16  0.1973907482E+01 -0.1428339469E-16 -0.1083375276E+00
  0.1200000000E+01  0.1000000000E+01  0.4698893521E-01  0.2364744805E+01 -0.4114535905E-16 -0.3259758924E+00  0.1021077104E+16  0.2334169927E+01 -0.3993889696E-16 -0.2859463102E+00
  0.1600000000E+01  0.1000000000E+01  0.1429536967E+00  0.6378209115E+01 -0.2794520024E-15 -0.1845953283E+01  0.1021077104E+16  0.6276973219E+01 -0.2837817168E-15 -0.1815827090E+01
  0.1553011065E+01  0.1000000000E+01  0.1429536967E+00  0.8167223600E+01 -0.1432611814E-15 -0.1008587386E+01  0.1021077104E+16  0.8125647324E+01 -0.1424282329E-15 -0.9713705338E+00
  0.1457046303E+01  0.1000000000E+01  0.1429536967E+00  0.6243502986E+01  0.1741501882E-16 -0.1005829827E+01  0.1021077104E+16  0.6210020196E+01  0.1520696717E-16 -0.9697662550E+00
  0.1342953697E+01  0.1000000000E+01  0.1429536967E+00  0.6304941756E+01  0.9039654626E-16 -0.3369490220E+00  0.1021077104E+16  0.6271163402E+01  0.8921286354E-16 -0.3062176194E+00
  0.1246988935E+01  0.1000000000E+01  0.1429536967E+00  0.4977008336E+01  0.3280755191E-16 -0.9289684162E+00  0.1021077104E+16  0.4950878609E+01  0.3466822848E-16 -0.8985265098E+00
  0.1200000000E+01  0.1000000000E+01  0.1429536967E+00  0.5682294950E+01 -0.6114747793E-16 -0.8043576208E+00  0.1021077104E+16  0.5625493018E+01 -0.5983633875E-16 -0.7686735205E+00
  0.1600000000E+01  0.1000000000E+01  0.2570463033E+00  0.1159091262E+02  0.9202071138E-16 -0.3429001944E+01  0.1021077104E+16  0.1148023151E+02  0.9159828711E-16 -0.3466475520E+01
  0.1553011065E+01  0.1000000000E+01  0.2570463033E+00  0.1061295377E+02  0.1114628095E-15 -0.2350579691E+01  0.1021077104E+16  0.1054123247E+02  0.1109686392E-15 -0.2366859487E+01
  0.1457046303E+01  0.1000000000E+01  0.2570463033E+00  0.9393616929E+01  0.1623569182E-15 -0.2288425247E+01  0.1021077104E+16  0.9348592795E+01  0.1596838170E-15 -0.2276612925E+01
  0.1342953697E+01  0.1000000000E+01  0.2570463033E+00  0.7879392245E+01  0.1115072915E-15 -0.1292259097E+01  0.1021077104E+16  0.7846399088E+01  0.1096215272E-15 -0.1270412299E+01
  0.1246988935E+01  0.1000000000E+01  0.2570463033E+00  0.6674242507E+01  0.2505414472E-16 -0.2141863646E+01  0.1021077104E+16  0.6631521124E+01  0.2344986929E-16 -0.2107648840E+01
  0.1200000000E+01  0.1000000000E+01  0.2570463033E+00  0.6231186369E+01 -0.1334567465E-16 -0.1934570312E+01  0.1021077104E+16  0.6153691629E+01 -0.1301812382E-16 -0.1892742124E+01
  0.1600000000E+01  0.1000000000E+01  0.3530110648E+00  0.1033201254E+02  0.1925507403E-15 -0.3715760773E+01  0.1021077104E+16  0.1018690974E+02  0.1928015518E-15 -0.3706662462E+01
  0.1553011065E+01  0.1000000000E+01  0.3530110648E+00  0.1062683095E+02  0.1910943618E-15 -0.3662916394E+01  0.1021077104E+16  0.1053075300E+02  0.1904381904E-15 -0.3645806742E+01
  0.1457046303E+01  0.1000000000E+01  0.3530110648E+00  0.9551839899E+01  0.1690542525E-15 -0.3373512039E+01  0.1021077104E+16  0.9493766106E+01  0.1651460088E-15 -0.3350146375E+01
  0.1342953697E+01  0.1000000000E+01  0.3530110648E+00  0.8371284709E+01  0.1237169252E-15 -0.2790990459E+01  0.1021077104E+16  0.8327401218E+01  0.1219865874E-15 -0.2750745194E+01
  0.1246988935E+01  0.1000000000E+01  0.3530110648E+00  0.7002284741E+01  0.5199169362E-16 -0.3134270888E+01  0.1021077104E+16  0.6939764669E+01  0.5336988174E-16 -0.3073082631E+01
  0.1200000000E+01  0.1000000000E+01  0.3530110648E+00  0.6871090575E+01  0.1875949604E-16 -0.3131877561E+01  0.1021077104E+16  0.6766171501E+01  0.1888094275E-16 -0.3058891584E+01
  0.1600000000E+01  0.1000000000E+01  0.4000000000E+00  0.1062139971E+02  0.1909853724E-15 -0.4367377394E+01  0.1021077104E+16  0.1046566706E+02  0.1910252812E-15 -0.4410357720E+01
  0.1553011065E+01  0.1000000000E+01  0.4000000000E+00  0.1006449753E+02  0.2004981120E-15 -0.3629891969E+01  0.1021077104E+16  0.9966168229E+01  0.2032280190E-15 -0.3657135718E+01
  0.1457046303E+01  0.1000000000E+01  0.4000000000E+00  0.9569367507E+01  0.1621507525E-15 -0.3853975851E+01  0.1021077104E+16  0.9506302688E+01  0.1628008915E-15 -0.3872674659E+01
  0.1342953697E+01  0.1000000000E+01  0.4000000000E+00  0.8243516456E+01  0.1171219015E-15 -0.3174294309E+01  0.1021077104E+16  0.8188516585E+01  0.1147091574E-15 -0.3166681327E+01
  0.1246988935E+01  0.1000000000E+01  0.4000000000E+00  0.7240886868E+01  0.4400743874E-16 -0.3701312711E+01  0.1021077104E+16  0.7164362661E+01  0.4379119349E-16 -0.3657062998E+01
  0.1200000000E+01  0.1000000000E+01  0.4000000000E+00  0.6616416732E+01  0.1939477821E-16 -0.3438218296E+01  0.1021077104E+16  0.6502139361E+01  0.1946698091E-16 -0.3382428667E+01
ZONE I=6, J=6, K=1, F=POINT
  0.2000000000E+01  0.1000000000E+01  0.0000000000E+00  0.2395693834E+01  0.5874440617E-19  0.2122944119E+02  0.1021077104E+16  0.2421424560E+01  0.7784229179E-19  0.2214702087E+02
  0.1953011065E+01  0.1000000000E+01  0.0000000000E+00  0.1228015795E+01 -0.3585780518E-16 -0.1438879119E+00  0.1021077104E+16  0.1234130760E+01 -0.3477297240E-16 -0.1602900547E+00
  0.1857046303E+01  0.1000000000E+01  0.0000000000E+00 -0.3856483251E+00 -0.2327207463E-16  0.1529056529E+00  0.1021077104E+16 -0.3781673310E+00 -0.2321510743E-16  0.1532086733E+00
  0.1742953697E+01  0.1000000000E+01  0.0000000000E+00  0.6106525184E-01 -0.1243469013E-19 -0.3796747234E-01  0.1021077104E+16  0.7572202777E-01 -0.1270760496E-18 -0.3751251553E-01
  0.1646988935E+01  0.1000000000E+01  0.0000000000E+00 -0.2082684770E+00  0.5458080448E-18  0.6104667401E-01  0.1021077104E+16 -0.1882896404E+00  0.4010920656E-18  0.6076042601E-01
  0.1600000000E+01  0.1000000000E+01  0.0000000000E+00  0.2106666205E-01 -0.1028751995E-17 -0.8143887812E-01  0.1021077104E+16  0.3954634781E-01 -0.1192335659E-17 -0.7897352170E-01
  0.2000000000E+01  0.1000000000E+01  0.4698893521E-01 -0.1952606298E-01  0.7540350162E-18  0.4841684091E+02  0.1021077104E+16 -0.6562702066E-01  0.6463848023E-18  0.4859531661E+02
  0.1953011065E+01  0.1000000000E+01  0.4698893521E-01  0.1087892819E+02  0.1339565444E-15  0.1385334548E+01  0.1021077104E+16  0.1074032659E+02  0.1315175528E-15  0.1287295874E+01
  0.1857046303E+01  0.1000000000E+01  0.4698893521E-01  0.1148970861E+02  0.2774885570E-15 -0.1987386216E+01  0.1021077104E+16  0.1134778676E+02  0.2677004464E-15 -0.2056434880E+01
  0.1742953697E+01  0.1000000000E+01  0.4698893521E-01  0.5568163508E+01 -0.4522008389E-16 -0.7644970452E+00  0.1021077104E+16  0.5453716873E+01 -0.4446869045E-16 -0.7544804181E+00
  0.1646988935E+01  0.1000000000E+01  0.4698893521E-01  0.4294707374E+01 -0.1161273763E-15 -0.7357759713E+00  0.1021077104E+16  0.4177948254E+01 -0.1103088918E-15 -0.6472848512E+00
  0.1600000000E+01  0.1000000000E+01  0.4698893521E-01  0.2715547642E+01 -0.8334703510E-16  0.1190667206E+00  0.1021077104E+16  0.2653264515E+01 -0.8162108542E-16  0.2179037459E+00
  0.2000000000E+01  0.1000000000E+01  0.1429536967E+00 -0.2814996515E+00  0.2734328761E-17  0.5041764281E+02  0.1021077104E+16 -0.2554100474E+00  0.3004810205E-17  0.5036727305E+02
  0.1953011065E+01  0.1000000000E+01  0.1429536967E+00  0.2689750948E+01 -0.5185709937E-15  0.1621750972E+02  0.1021077104E+16  0.2539869159E+01 -0.5308220553E-15  0.1612753873E+02
  0.1857046303E+01  0.1000000000E+01  0.1429536967E+00  0.1256834273E+02 -0.2644539912E-15 -0.3816075275E+01  0.1021077104E+16  0.1236314058E+02 -0.2524666907E-15 -0.3913623477E+01
  0.1742953697E+01  0.1000000000E+01  0.1429536967E+00  0.9843089546E+01 -0.4983151912E-16 -0.4187649980E+01  0.1021077104E+16  0.9645126001E+01 -0.6957441224E-16 -0.4224531866E+01
  0.1646988935E+01  0.1000000000E+01  0.1429536967E+00  0.9248443438E+01 -0.1680378144E-15 -0.2121145557E+01  0.1021077104E+16  0.9077552561E+01 -0.1688741978E-15 -0.2104193008E+01
  0.1600000000E+01  0.1000000000E+01  0.1429536967E+00  0.6004980605E+01 -0.2961045671E-15 -0.1846070128E+01  0.1021077104E+16  0.5944634192E+01 -0.3009479428E-15 -0.1820519436E+01
  0.2000000000E+01  0.1000000000E+01  0.2570463033E+00  0.1768741801E-01  0.1106599622E-17  0.4978875349E+02  0.1021077104E+16  0.1738359879E-01  0.1052740680E-17  0.4981546155E+02