TITLE = "Generated from ../MESH/Convergence_0000000000.hmesh and Convergence_0000005300.hsol"
VARIABLES = "x","y","z","veloT_x","veloT_y","veloT_z","slr_4","velo_x","velo_y","velo_z"
ZONE I=6, J=6, K=1, F=POINT
  0.4000000000E+00  0.1000000000E+01  0.0000000000E+00 -0.1197386414E-01  0.2773691590E-19  0.7165584895E-02  0.6494783769E+15 -0.1179483873E-01  0.2775736737E-19  0.7374149831E-02
  0.3530110648E+00  0.1000000000E+01  0.0000000000E+00 -0.1905381899E-02  0.8545454426E-20 -0.4410052634E-03  0.6494783769E+15 -0.1303314295E-02  0.8865625823E-20 -0.3738500402E-03
  0.2570463033E+00  0.1000000000E+01  0.0000000000E+00 -0.5756380053E-03  0.1142389957E-20  0.2363991593E-02  0.6494783769E+15 -0.8113407514E-05  0.1409497345E-20  0.2390755138E-02
  0.1429536967E+00  0.1000000000E+01  0.0000000000E+00 -0.1725766665E-02  0.2300936118E-21 -0.1088479086E-02  0.6494783769E+15 -0.1185757313E-02  0.3298443283E-21 -0.1070497075E-02
  0.4698893521E-01  0.1000000000E+01  0.0000000000E+00  0.9413057632E-03 -0.2486119664E-20  0.2172559779E-02  0.6494783769E+15  0.1432881039E-02 -0.2599240056E-20  0.2151630446E-02
  0.0000000000E+00  0.1000000000E+01  0.0000000000E+00 -0.7633285173E-02  0.1442569449E-22  0.2182919938E-02  0.6494783769E+15 -0.7610762989E-02  0.1566078951E-22  0.2182235563E-02
  0.4000000000E+00  0.1000000000E+01  0.4698893521E-01  0.2673849641E+00  0.3140310979E-17 -0.2894340183E-01  0.6494783769E+15  0.2674473283E+00  0.3140253672E-17 -0.4106313209E-01
  0.3530110648E+00  0.1000000000E+01  0.4698893521E-01  0.1265041961E+00  0.2826598199E-17  0.7678896835E-02  0.6494783769E+15  0.1251469428E+00  0.2853791058E-17 -0.2797877462E-02
  0.2570463033E+00  0.1000000000E+01  0.4698893521E-01  0.9811083457E-01  0.1187791787E-17 -0.8325139396E-02  0.6494783769E+15  0.9676921650E-01  0.1182449099E-17 -0.1320120334E-01
  0.1429536967E+00  0.1000000000E+01  0.4698893521E-01  0.2591790451E-02  0.3388227200E-18 -0.5545948667E-02  0.6494783769E+15  0.1647987667E-02  0.3357188347E-18 -0.6485905047E-02
  0.4698893521E-01  0.1000000000E+01  0.4698893521E-01 -0.3047734717E-02  0.7653481783E-19 -0.6130106173E-02  0.6494783769E+15 -0.3851072524E-02  0.7571015170E-19 -0.5739890076E-02
  0.0000000000E+00  0.1000000000E+01  0.4698893521E-01 -0.1819012840E-01  0.8955236576E-21  0.3254191424E-02  0.6494783769E+15 -0.1822556905E-01  0.9491985868E-21  0.2813983107E-02
  0.4000000000E+00  0.1000000000E+01  0.1429536967E+00  0.6065063123E+00  0.1006391900E-16 -0.1198884483E+00  0.6494783769E+15  0.6065253244E+00  0.1006480506E-16 -0.1294898472E+00
  0.3530110648E+00  0.1000000000E+01  0.1429536967E+00  0.3468255691E+00  0.6316095460E-17 -0.1564023296E+00  0.6494783769E+15  0.3395740262E+00  0.6378911452E-17 -0.1648402402E+00
  0.2570463033E+00  0.1000000000E+01  0.1429536967E+00  0.2424746128E+00  0.2717999824E-17 -0.9627409062E-01  0.6494783769E+15  0.2352960287E+00  0.2714550901E-17 -0.9894393259E-01
  0.1429536967E+00  0.1000000000E+01  0.1429536967E+00  0.3926521983E-01  0.1074357338E-17 -0.1077226728E+00  0.6494783769E+15  0.3682939758E-01  0.1074807577E-17 -0.1071495951E+00
  0.4698893521E-01  0.1000000000E+01  0.1429536967E+00 -0.5012721599E-02  0.2624465603E-18 -0.5632936523E-02  0.6494783769E+15 -0.6332669905E-02  0.2591421684E-18 -0.4854784897E-02
  0.0000000000E+00  0.1000000000E+01  0.1429536967E+00 -0.2137513952E-01  0.2748599895E-23 -0.1093585729E-03  0.6494783769E+15 -0.2140570462E-01  0.2532266422E-21 -0.5968270422E-03
  0.4000000000E+00  0.1000000000E+01  0.2570463033E+00  0.7209594483E+00  0.4412716807E-17 -0.4180189263E+00  0.6494783769E+15  0.7233969336E+00  0.4411758245E-17 -0.4152087340E+00
  0.3530110648E+00  0.1000000000E+01  0.2570463033E+00  0.5357498014E+00  0.3239506962E-17 -0.4540903131E+00  0.6494783769E+15  0.5277169673E+00  0.3253254122E-17 -0.4531808228E+00
  0.2570463033E+00  0.1000000000E+01  0.2570463033E+00  0.3289570963E+00  0.2514061852E-17 -0.3121580562E+00  0.6494783769E+15  0.3194145661E+00  0.2514673726E-17 -0.3138983832E+00
  0.1429536967E+00  0.1000000000E+01  0.2570463033E+00  0.9845309852E-01  0.1795609381E-17 -0.2831273800E+00  0.6494783769E+15  0.9498572561E-01  0.1796468793E-17 -0.2840292046E+00
  0.4698893521E-01  0.1000000000E+01  0.2570463033E+00  0.1361443888E-01  0.1168623812E-17 -0.4805888891E-01  0.6494783769E+15  0.1177079184E-01  0.1180829432E-17 -0.4710803954E-01
  0.0000000000E+00  0.1000000000E+01  0.2570463033E+00 -0.1423653819E-01 -0.4397867052E-20 -0.4050243297E-03  0.6494783769E+15 -0.1427937130E-01 -0.4587924219E-20 -0.4691207643E-03
  0.4000000000E+00  0.1000000000E+01  0.3530110648E+00  0.7767019222E+00  0.4980962274E-17 -0.7223639349E+00  0.6494783769E+15  0.7833377493E+00  0.4979573512E-17 -0.7201528512E+00
  0.3530110648E+00  0.1000000000E+01  0.3530110648E+00  0.5734642453E+00  0.4393516023E-17 -0.7194165189E+00  0.6494783769E+15  0.5714853120E+00  0.4394731154E-17 -0.7197987315E+00
  0.2570463033E+00  0.1000000000E+01  0.3530110648E+00  0.3463622580E+00  0.2566099526E-17 -0.5413528262E+00  0.6494783769E+15  0.3390133774E+00  0.2641125524E-17 -0.5466326311E+00
  0.1429536967E+00  0.1000000000E+01  0.3530110648E+00  0.1045364113E+00  0.2283043968E-17 -0.4321297395E+00  0.6494783769E+15  0.9764675917E-01  0.2310429134E-17 -0.4353365291E+00
  0.4698893521E-01  0.1000000000E+01  0.3530110648E+00  0.1734738873E-01  0.6833904442E-18 -0.1122623976E+00  0.6494783769E+15  0.1326420049E-01  0.6748692372E-18 -0.1112944102E+00
  0.0000000000E+00  0.1000000000E+01  0.3530110648E+00 -0.1445011060E-01  0.5197806815E-20 -0.5195554060E-03  0.6494783769E+15 -0.1445774601E-01  0.5045433636E-20 -0.4753796731E-03
  0.4000000000E+00  0.1000000000E+01  0.4000000000E+00  0.7673895360E+00  0.7060115637E-17 -0.8838983040E+00  0.6494783769E+15  0.7753121372E+00  0.7054899895E-17 -0.8857238539E+00
  0.3530110648E+00  0.1000000000E+01  0.4000000000E+00  0.6083070922E+00  0.6156560219E-17 -0.8678294696E+00  0.6494783769E+15  0.6086311117E+00  0.6178692647E-17 -0.8711197758E+00
  0.2570463033E+00  0.1000000000E+01  0.4000000000E+00  0.3490201783E+00  0.2589536728E-17 -0.6610196755E+00  0.6494783769E+15  0.3420560877E+00  0.2553507305E-17 -0.6647727955E+00
  0.1429536967E+00  0.1000000000E+01  0.4000000000E+00  0.1143128044E+00  0.2439809743E-17 -0.5101084188E+00  0.6494783769E+15  0.1055648866E+00  0.2429463667E-17 -0.5112706526E+00
  0.4698893521E-01  0.1000000000E+01  0.4000000000E+00  0.1409075931E-01  0.6745992794E-18 -0.1424689807E+00  0.6494783769E+15  0.8733765632E-02  0.6713515686E-18 -0.1412744138E+00
  0.0000000000E+00  0.1000000000E+01  0.4000000000E+00 -0.7258441871E-02  0.8511341772E-20 -0.1667645901E-02  0.6494783769E+15 -0.7215945211E-02  0.8647812837E-20 -0.1764544312E-02
ZONE I=6, J=6, K=1, F=POINT
  0.8000000000E+00  0.1000000000E+01  0.0000000000E+00  0.1789896963E-01 -0.8602006675E-19 -0.1135165713E-01  0.6494783769E+15  0.1894170531E-01 -0.8732551338E-19 -0.1146449955E-01
  0.7530110648E+00  0.1000000000E+01  0.0000000000E+00  0.2192828453E-02  0.8330073352E-19  0.5983280770E-02  0.6494783769E+15  0.3052792533E-02  0.1038522300E-18  0.5914778283E-02
  0.6570463033E+00  0.1000000000E+01  0.0000000000E+00 -0.2991636918E-03  0.2536048581E-19  0.3198090023E-03  0.6494783769E+15  0.2656379931E-04  0.2990922024E-19  0.2680026948E-03
  0.5429536967E+00  0.1000000000E+01  0.0000000000E+00  0.9313977001E-03  0.3207445577E-19  0.6934612211E-02  0.6494783769E+15  0.9353064138E-03  0.3094988618E-19  0.6871742866E-02
  0.4469889352E+00  0.1000000000E+01  0.0000000000E+00 -0.1765549905E-02 -0.3174322522E-19  0.5570605463E-03  0.6494783769E+15 -0.1753050728E-02 -0.3129652826E-19  0.6218621019E-03
  0.4000000000E+00  0.1000000000E+01  0.0000000000E+00  0.1484644527E-01  0.3141713140E-19  0.6844250315E-02  0.6494783769E+15  0.1491690031E-01  0.3148444111E-19  0.7058624079E-02
  0.8000000000E+00  0.1000000000E+01  0.4698893521E-01  0.3485927259E+00 -0.2327003045E-16  0.1068805828E-01  0.6494783769E+15  0.3522308867E+00 -0.2330810406E-16  0.9678583908E-02
  0.7530110648E+00  0.1000000000E+01  0.4698893521E-01  0.5397898279E+00 -0.2268397824E-16 -0.4790103148E-01  0.6494783769E+15  0.5421037796E+00 -0.2281263651E-16 -0.4888465507E-01
  0.6570463033E+00  0.1000000000E+01  0.4698893521E-01  0.3145402144E+00 -0.4351743749E-17 -0.1467426746E-01  0.6494783769E+15  0.3158837000E+00 -0.4336474158E-17 -0.1476008775E-01
  0.5429536967E+00  0.1000000000E+01  0.4698893521E-01  0.3388907819E+00  0.4431326941E-17  0.5920655135E-03  0.6494783769E+15  0.3407447706E+00  0.4460824779E-17 -0.3419140660E-02
  0.4469889352E+00  0.1000000000E+01  0.4698893521E-01  0.2063645180E+00  0.4071562952E-17  0.1377184755E-01  0.6494783769E+15  0.2078824616E+00  0.4071303795E-17  0.3446116513E-02
  0.4000000000E+00  0.1000000000E+01  0.4698893521E-01  0.3099220985E+00  0.2896490100E-17 -0.2970439207E-01  0.6494783769E+15  0.3098819932E+00  0.2896778867E-17 -0.4182184840E-01
  0.8000000000E+00  0.1000000000E+01  0.1429536967E+00  0.1135446514E+01 -0.5289720910E-16 -0.3778054755E+00  0.6494783769E+15  0.1140151973E+01 -0.5275355767E-16 -0.3720959071E+00
  0.7530110648E+00  0.1000000000E+01  0.1429536967E+00  0.1416834821E+01 -0.3303893377E-16 -0.2320988421E+00  0.6494783769E+15  0.1419730432E+01 -0.3309451237E-16 -0.2270971084E+00
  0.6570463033E+00  0.1000000000E+01  0.1429536967E+00  0.9516582479E+00 -0.2845392381E-17 -0.2241064426E+00  0.6494783769E+15  0.9551211394E+00 -0.2982706515E-17 -0.2215782369E+00
  0.5429536967E+00  0.1000000000E+01  0.1429536967E+00  0.8564585627E+00  0.9778404427E-17 -0.7224016658E-01  0.6494783769E+15  0.8649571350E+00  0.1002126065E-16 -0.7471984169E-01
  0.4469889352E+00  0.1000000000E+01  0.1429536967E+00  0.5400364713E+00  0.1000045191E-16 -0.1457884298E+00  0.6494783769E+15  0.5473307281E+00  0.9988222617E-17 -0.1541148942E+00
  0.4000000000E+00  0.1000000000E+01  0.1429536967E+00  0.6581255652E+00  0.1077367561E-16 -0.1193300987E+00  0.6494783769E+15  0.6583924024E+00  0.1078188431E-16 -0.1289489943E+00
  0.8000000000E+00  0.1000000000E+01  0.2570463033E+00  0.2235506126E+01 -0.1187433868E-16 -0.9715909762E+00  0.6494783769E+15  0.2239284696E+01 -0.1186732943E-16 -0.9713520392E+00
  0.7530110648E+00  0.1000000000E+01  0.2570463033E+00  0.2085155894E+01 -0.8313136748E-17 -0.7177773836E+00  0.6494783769E+15  0.2088255707E+01 -0.8291984692E-17 -0.7154972009E+00
  0.6570463033E+00  0.1000000000E+01  0.2570463033E+00  0.1568404049E+01 -0.2475818359E-17 -0.6528177745E+00  0.6494783769E+15  0.1572746101E+01 -0.2591547409E-17 -0.6465018561E+00
  0.5429536967E+00  0.1000000000E+01  0.2570463033E+00  0.1172362761E+01  0.3341127642E-17 -0.3833021066E+00  0.6494783769E+15  0.1184674853E+01  0.3547212620E-17 -0.3754359329E+00
  0.4469889352E+00  0.1000000000E+01  0.2570463033E+00  0.8089308426E+00  0.4209727023E-17 -0.4734578711E+00  0.6494783769E+15  0.8209372350E+00  0.4263404459E-17 -0.4687029051E+00
  0.4000000000E+00  0.1000000000E+01  0.2570463033E+00  0.7520940268E+00  0.4437717566E-17 -0.4173582969E+00  0.6494783769E+15  0.7541243765E+00  0.4436748176E-17 -0.4145912808E+00
  0.8000000000E+00  0.1000000000E+01  0.3530110648E+00  0.2534550978E+01  0.3113895438E-17 -0.1505207777E+01  0.6494783769E+15  0.2533094585E+01  0.3129887238E-17 -0.1514221752E+01
  0.7530110648E+00  0.1000000000E+01  0.3530110648E+00  0.2405805238E+01  0.8359859521E-17 -0.1282150794E+01  0.6494783769E+15  0.2400451798E+01  0.8036144651E-17 -0.1286800822E+01
  0.6570463033E+00  0.1000000000E+01  0.3530110648E+00  0.1822880898E+01  0.6813807466E-18 -0.1092216803E+01  0.6494783769E+15  0.1820366028E+01  0.6852281955E-18 -0.1085833001E+01
  0.5429536967E+00  0.1000000000E+01  0.3530110648E+00  0.1326320698E+01  0.1006607801E-17 -0.7658060053E+00  0.6494783769E+15  0.1340063208E+01  0.7583010588E-19 -0.7557091113E+00
  0.4469889352E+00  0.1000000000E+01  0.3530110648E+00  0.8663290570E+00  0.4825776061E-17 -0.7804492428E+00  0.6494783769E+15  0.8840643754E+00  0.4825097351E-17 -0.7753925903E+00
  0.4000000000E+00  0.1000000000E+01  0.3530110648E+00  0.8102952320E+00  0.4964136256E-17 -0.7221686691E+00  0.6494783769E+15  0.8165662845E+00  0.4957998688E-17 -0.7199500971E+00
  0.8000000000E+00  0.1000000000E+01  0.4000000000E+00  0.2660047138E+01 -0.2625217351E-17 -0.1827422612E+01  0.6494783769E+15  0.2656879244E+01 -0.2626675223E-17 -0.1831179180E+01
  0.7530110648E+00  0.1000000000E+01  0.4000000000E+00  0.2402737362E+01  0.5212553110E-18 -0.1539709939E+01  0.6494783769E+15  0.2392805864E+01  0.5268708024E-18 -0.1541015822E+01
  0.6570463033E+00  0.1000000000E+01  0.4000000000E+00  0.1860118892E+01  0.1519369255E-17 -0.1331445286E+01  0.6494783769E+15  0.1854343830E+01  0.1469932765E-17 -0.1327030413E+01
  0.5429536967E+00  0.1000000000E+01  0.4000000000E+00  0.1329706168E+01  0.6935683565E-17 -0.1006695669E+01  0.6494783769E+15  0.1345051515E+01  0.7432476198E-17 -0.1003148826E+01
  0.4469889352E+00  0.1000000000E+01  0.4000000000E+00  0.9322021535E+00  0.7419442169E-17 -0.9675615548E+00  0.6494783769E+15  0.9524234987E+00  0.7817824878E-17 -0.9684253632E+00
  0.4000000000E+00  0.1000000000E+01  0.4000000000E+00  0.7791411045E+00  0.7082322269E-17 -0.8831581376E+00  0.6494783769E+15  0.7869933918E+00  0.7076603264E-17 -0.8850048204E+00
ZONE I=6, J=6, K=1, F=POINT
  0.1200000000E+01  0.1000000000E+01  0.0000000000E+00 -0.3218216741E-01  0.5568960647E-19  0.3669116160E-01  0.6494783769E+15 -0.2949009831E-01  0.5827770213E-19  0.3648757459E-01
  0.1153011065E+01  0.1000000000E+01  0.0000000000E+00 -0.5256621026E-02 -0.2388707231E-18 -0.9684437706E-02  0.6494783769E+15 -0.2996270450E-02 -0.1335794844E-18 -0.9751464234E-02
  0.1057046303E+01  0.1000000000E+01  0.0000000000E+00  0.2307324309E-02  0.2376964097E-19  0.5899478062E-02  0.6494783769E+15  0.4216555682E-02  0.7194332324E-19  0.5877119746E-02
  0.9429536967E+00  0.1000000000E+01  0.0000000000E+00 -0.1876440146E-02  0.2024171513E-20 -0.8290703320E-02  0.6494783769E+15 -0.4927797342E-03  0.4340130310E-20 -0.8363386366E-02
  0.8469889352E+00  0.1000000000E+01  0.0000000000E+00  0.3763861220E-02 -0.2285550464E-19  0.5298979347E-02  0.6494783769E+15  0.4615583205E-02 -0.2356485408E-19  0.5243195197E-02
  0.8000000000E+00  0.1000000000E+01  0.0000000000E+00 -0.2690571081E-01 -0.9573943836E-19 -0.1081579492E-01  0.6494783769E+15 -0.2621439496E-01 -0.9709291629E-19 -0.1093030342E-01
  0.1200000000E+01  0.1000000000E+01  0.4698893521E-01  0.2241347178E+01 -0.4172908321E-16 -0.2050071348E+00  0.6494783769E+15  0.2250135174E+01 -0.4209686266E-16 -0.1957020819E+00
  0.1153011065E+01  0.1000000000E+01  0.4698893521E-01  0.1548986490E+01 -0.2594361178E-16 -0.5909050701E-01  0.6494783769E+15  0.1556112846E+01 -0.2617419468E-16 -0.5056464346E-01
  0.1057046303E+01  0.1000000000E+01  0.4698893521E-01  0.1403318192E+01 -0.1212539766E-16 -0.9457057187E-01  0.6494783769E+15  0.1409719505E+01 -0.1203896441E-16 -0.8820759171E-01
  0.9429536967E+00  0.1000000000E+01  0.4698893521E-01  0.7869809327E+00 -0.1434130003E-16 -0.8028690316E-01  0.6494783769E+15  0.7926510221E+00 -0.1448975973E-16 -0.7690340285E-01
  0.8469889352E+00  0.1000000000E+01  0.4698893521E-01  0.6804730525E+00 -0.2730072147E-16 -0.7653131125E-01  0.6494783769E+15  0.6845761460E+00 -0.2748175641E-16 -0.7634915098E-01
  0.8000000000E+00  0.1000000000E+01  0.4698893521E-01  0.2875018691E+00 -0.2256974801E-16  0.1274989262E-01  0.6494783769E+15  0.2912957167E+00 -0.2261498828E-16  0.1169105265E-01
  0.1200000000E+01  0.1000000000E+01  0.1429536967E+00  0.5223989671E+01 -0.5787535061E-16 -0.6438977964E+00  0.6494783769E+15  0.5238189317E+01 -0.5811894043E-16 -0.6347023385E+00
  0.1153011065E+01  0.1000000000E+01  0.1429536967E+00  0.3763693680E+01 -0.6737466958E-16 -0.8512014761E+00  0.6494783769E+15  0.3772916945E+01 -0.6696447408E-16 -0.8424072721E+00
  0.1057046303E+01  0.1000000000E+01  0.1429536967E+00  0.3357051250E+01 -0.3778450909E-16 -0.6354718853E+00  0.6494783769E+15  0.3365220727E+01 -0.3780300596E-16 -0.6269505420E+00
  0.9429536967E+00  0.1000000000E+01  0.1429536967E+00  0.2075243536E+01 -0.3335165453E-16 -0.7425421420E+00  0.6494783769E+15  0.2083671337E+01 -0.3334647254E-16 -0.7354747691E+00
  0.8469889352E+00  0.1000000000E+01  0.1429536967E+00  0.1777184146E+01 -0.4934998967E-16 -0.3964027178E+00  0.6494783769E+15  0.1783714556E+01 -0.4952676899E-16 -0.3903665433E+00
  0.8000000000E+00  0.1000000000E+01  0.1429536967E+00  0.1051525544E+01 -0.5512075996E-16 -0.3794316045E+00  0.6494783769E+15  0.1058053330E+01 -0.5498433726E-16 -0.3736923196E+00
  0.1200000000E+01  0.1000000000E+01  0.2570463033E+00  0.5576715498E+01 -0.5619901810E-17 -0.1783996681E+01  0.6494783769E+15  0.5586982865E+01 -0.5560376922E-17 -0.1782667682E+01
  0.1153011065E+01  0.1000000000E+01  0.2570463033E+00  0.5034266734E+01 -0.3716941055E-16 -0.2033598501E+01  0.6494783769E+15  0.5042022640E+01 -0.3789190696E-16 -0.2032226100E+01
  0.1057046303E+01  0.1000000000E+01  0.2570463033E+00  0.4176793693E+01 -0.3040615645E-16 -0.1637155914E+01  0.6494783769E+15  0.4186830872E+01 -0.3039688967E-16 -0.1636755653E+01
  0.9429536967E+00  0.1000000000E+01  0.2570463033E+00  0.3181756827E+01 -0.2921839937E-16 -0.1682222497E+01  0.6494783769E+15  0.3191097480E+01 -0.2969360202E-16 -0.1685327684E+01
  0.8469889352E+00  0.1000000000E+01  0.2570463033E+00  0.2612913489E+01 -0.1310275236E-16 -0.1047448010E+01  0.6494783769E+15  0.2617163350E+01 -0.1300414143E-16 -0.1049358032E+01
  0.8000000000E+00  0.1000000000E+01  0.2570463033E+00  0.2197902917E+01 -0.1203319468E-16 -0.9741759327E+00  0.6494783769E+15  0.2202160028E+01 -0.1202046112E-16 -0.9735479540E+00
  0.1200000000E+01  0.1000000000E+01  0.3530110648E+00  0.5924728957E+01  0.3364167650E-16 -0.2954703045E+01  0.6494783769E+15  0.5935180741E+01  0.3366222109E-16 -0.2947625032E+01
  0.1153011065E+01  0.1000000000E+01  0.3530110648E+00  0.5187527246E+01  0.1444324094E-16 -0.2886011129E+01  0.6494783769E+15  0.5196312372E+01  0.1434891124E-16 -0.2879741110E+01
  0.1057046303E+01  0.1000000000E+01  0.3530110648E+00  0.4441427669E+01 -0.6222513045E-17 -0.2516371928E+01  0.6494783769E+15  0.4456863943E+01 -0.6249999628E-17 -0.2515709381E+01
  0.9429536967E+00  0.1000000000E+01  0.3530110648E+00  0.3469891540E+01 -0.1323262462E-16 -0.2308068104E+01  0.6494783769E+15  0.3482822942E+01 -0.1358021501E-16 -0.2315451200E+01
  0.8469889352E+00  0.1000000000E+01  0.3530110648E+00  0.2974872043E+01  0.4498548421E-18 -0.1695071748E+01  0.6494783769E+15  0.2976308826E+01  0.5643377866E-18 -0.1705577311E+01
  0.8000000000E+00  0.1000000000E+01  0.3530110648E+00  0.2487849564E+01  0.3172675618E-17 -0.1505494735E+01  0.6494783769E+15  0.2487218339E+01  0.3192419242E-17 -0.1514557131E+01
  0.1200000000E+01  0.1000000000E+01  0.4000000000E+00  0.5664592360E+01  0.3939730716E-16 -0.3283863648E+01  0.6494783769E+15  0.5674446207E+01  0.3939825542E-16 -0.3265122765E+01
  0.1153011065E+01  0.1000000000E+01  0.4000000000E+00  0.5287351538E+01  0.3052498899E-16 -0.3404709419E+01  0.6494783769E+15  0.5298272921E+01  0.3063371504E-16 -0.3389277370E+01
  0.1057046303E+01  0.1000000000E+01  0.4000000000E+00  0.4403686905E+01  0.4966018443E-17 -0.2913669831E+01  0.6494783769E+15  0.4422430514E+01  0.5172355110E-17 -0.2904017326E+01
  0.9429536967E+00  0.1000000000E+01  0.4000000000E+00  0.3556066873E+01 -0.1220592819E-16 -0.2678941383E+01  0.6494783769E+15  0.3571793404E+01 -0.1238318865E-16 -0.2675163644E+01
  0.8469889352E+00  0.1000000000E+01  0.4000000000E+00  0.2949015995E+01 -0.7049791190E-17 -0.1982861679E+01  0.6494783769E+15  0.2951616046E+01 -0.7060838494E-17 -0.1986253718E+01
  0.8000000000E+00  0.1000000000E+01  0.4000000000E+00  0.2656585731E+01 -0.2606213231E-17 -0.1830831532E+01  0.6494783769E+15  0.2653118783E+01 -0.2607995791E-17 -0.1834177839E+01
ZONE I=6, J=6, K=1, F=POINT
  0.1600000000E+01  0.1000000000E+01  0.0000000000E+00  0.1300316736E+00 -0.9289237762E-18 -0.7225883531E-01  0.6494783769E+15  0.1323207343E+00 -0.1043813980E-17 -0.7175846226E-01
  0.1553011065E+01  0.1000000000E+01  0.0000000000E+00  0.9977808040E-02 -0.1291240099E-17  0.4518360708E-01  0.6494783769E+15  0.1259636251E-01 -0.1443945129E-17  0.4516499035E-01
  0.1457046303E+01  0.1000000000E+01  0.0000000000E+00 -0.7839495379E-02 -0.8187597896E-19 -0.3316016286E-02  0.6494783769E+15 -0.5017961749E-02 -0.1675474742E-18 -0.3226887037E-02
  0.1342953697E+01  0.1000000000E+01  0.0000000000E+00  0.4655935763E-02  0.3669396639E-18  0.2989069601E-01  0.6494783769E+15  0.7788216597E-02  0.5424471341E-18  0.2967689196E-01
  0.1246988935E+01  0.1000000000E+01  0.0000000000E+00 -0.8167888866E-02  0.1359670207E-18 -0.8130936780E-02  0.6494783769E+15 -0.5227861120E-02  0.1470169413E-18 -0.8230533830E-02
  0.1200000000E+01  0.1000000000E+01  0.0000000000E+00  0.5730623087E-01  0.5949465913E-19  0.3670680493E-01  0.6494783769E+15  0.6010778056E-01  0.6309515175E-19  0.3648496132E-01
  0.1600000000E+01  0.1000000000E+01  0.4698893521E-01  0.2993921744E+01 -0.8750784032E-16  0.2295355561E+00  0.6494783769E+15  0.2998368432E+01 -0.8761856945E-16  0.2285952939E+00
  0.1553011065E+01  0.1000000000E+01  0.4698893521E-01  0.3499525400E+01 -0.4360615257E-16 -0.2755754187E+00  0.6494783769E+15  0.3506305979E+01 -0.4339890280E-16 -0.2748392950E+00
  0.1457046303E+01  0.1000000000E+01  0.4698893521E-01  0.2545566274E+01 -0.4061725207E-17 -0.9037726658E-01  0.6494783769E+15  0.2552939832E+01 -0.4274496836E-17 -0.8492845121E-01
  0.1342953697E+01  0.1000000000E+01  0.4698893521E-01  0.2552035602E+01  0.2856261937E-16 -0.6587160574E-01  0.6494783769E+15  0.2560283323E+01  0.2864004171E-16 -0.5551292581E-01
  0.1246988935E+01  0.1000000000E+01  0.4698893521E-01  0.1974366082E+01 -0.7382257937E-17 -0.3170117471E-01  0.6494783769E+15  0.1983448307E+01 -0.6997434436E-17 -0.2160346269E-01
  0.1200000000E+01  0.1000000000E+01  0.4698893521E-01  0.2340203215E+01 -0.4595882570E-16 -0.2106885226E+00  0.6494783769E+15  0.2346963183E+01 -0.4630258188E-16 -0.2010031845E+00
  0.1600000000E+01  0.1000000000E+01  0.1429536967E+00  0.6398268270E+01 -0.2657927561E-15 -0.1772485427E+01  0.6494783769E+15  0.6381124020E+01 -0.2658325555E-15 -0.1775374659E+01
  0.1553011065E+01  0.1000000000E+01  0.1429536967E+00  0.8105485909E+01 -0.1410365337E-15 -0.9399053534E+00  0.6494783769E+15  0.8106086043E+01 -0.1412305650E-15 -0.9391876229E+00
  0.1457046303E+01  0.1000000000E+01  0.1429536967E+00  0.6075986626E+01  0.3152063651E-16 -0.9297390328E+00  0.6494783769E+15  0.6078041907E+01  0.3146991840E-16 -0.9229355818E+00
  0.1342953697E+01  0.1000000000E+01  0.1429536967E+00  0.6044613891E+01  0.1001498538E-15 -0.2205441064E+00  0.6494783769E+15  0.6050966316E+01  0.1004064209E-15 -0.2099622422E+00
  0.1246988935E+01  0.1000000000E+01  0.1429536967E+00  0.4673515300E+01  0.2748620086E-16 -0.7728978910E+00  0.6494783769E+15  0.4685243512E+01  0.2670578151E-16 -0.7626874552E+00
  0.1200000000E+01  0.1000000000E+01  0.1429536967E+00  0.5390588791E+01 -0.6204333957E-16 -0.6384179961E+00  0.6494783769E+15  0.5393647696E+01 -0.6215629115E-16 -0.6299395061E+00
  0.1600000000E+01  0.1000000000E+01  0.2570463033E+00  0.1138071191E+02  0.1056287145E-15 -0.3587886116E+01  0.6494783769E+15  0.1137927599E+02  0.1055349846E-15 -0.3593020617E+01
  0.1553011065E+01  0.1000000000E+01  0.2570463033E+00  0.1031164496E+02  0.1280754399E-15 -0.2507165379E+01  0.6494783769E+15  0.1030699640E+02  0.1279877207E-15 -0.2504207383E+01
  0.1457046303E+01  0.1000000000E+01  0.2570463033E+00  0.8955366980E+01  0.1855248866E-15 -0.2391583993E+01  0.6494783769E+15  0.8953494615E+01  0.1853143034E-15 -0.2383909803E+01
  0.1342953697E+01  0.1000000000E+01  0.2570463033E+00  0.7318064759E+01  0.1321594643E-15 -0.1265057982E+01  0.6494783769E+15  0.7327999847E+01  0.1327073238E-15 -0.1258871987E+01
  0.1246988935E+01  0.1000000000E+01  0.2570463033E+00  0.6054703619E+01  0.4241747527E-16 -0.2013436569E+01  0.6494783769E+15  0.6069561741E+01  0.4319145417E-16 -0.2010802590E+01
  0.1200000000E+01  0.1000000000E+01  0.2570463033E+00  0.5616320963E+01 -0.5894471417E-17 -0.1774408460E+01  0.6494783769E+15  0.5626257583E+01 -0.5835019826E-17 -0.1775854548E+01
  0.1600000000E+01  0.1000000000E+01  0.3530110648E+00  0.9899676705E+01  0.2097734218E-15 -0.4069767714E+01  0.6494783769E+15  0.9884988836E+01  0.2097258897E-15 -0.4063854025E+01
  0.1553011065E+01  0.1000000000E+01  0.3530110648E+00  0.1008113349E+02  0.2132604082E-15 -0.4002994445E+01  0.6494783769E+15  0.1007003350E+02  0.2131636884E-15 -0.3996689004E+01
  0.1457046303E+01  0.1000000000E+01  0.3530110648E+00  0.8860912368E+01  0.1994369184E-15 -0.3606770397E+01  0.6494783769E+15  0.8857334274E+01  0.1989983313E-15 -0.3596865902E+01
  0.1342953697E+01  0.1000000000E+01  0.3530110648E+00  0.7558538591E+01  0.1503283591E-15 -0.2825033674E+01  0.6494783769E+15  0.7572400458E+01  0.1506693496E-15 -0.2814737096E+01
  0.1246988935E+01  0.1000000000E+01  0.3530110648E+00  0.6125407232E+01  0.6544678927E-16 -0.3010000480E+01  0.6494783769E+15  0.6144624012E+01  0.6488284852E-16 -0.3001952372E+01
  0.1200000000E+01  0.1000000000E+01  0.3530110648E+00  0.6002329507E+01  0.3375286548E-16 -0.2955105190E+01  0.6494783769E+15  0.6009703282E+01  0.3374564585E-16 -0.2947722410E+01
  0.1600000000E+01  0.1000000000E+01  0.4000000000E+00  0.1008770804E+02  0.2118801650E-15 -0.4767534467E+01  0.6494783769E+15  0.1007887933E+02  0.2117974274E-15 -0.4763456052E+01
  0.1553011065E+01  0.1000000000E+01  0.4000000000E+00  0.9414504569E+01  0.2260534087E-15 -0.4022584559E+01  0.6494783769E+15  0.9404314327E+01  0.2264349888E-15 -0.4017153415E+01
  0.1457046303E+01  0.1000000000E+01  0.4000000000E+00  0.8768626149E+01  0.1942237555E-15 -0.4161906984E+01  0.6494783769E+15  0.8762574345E+01  0.1944073428E-15 -0.4152898613E+01
  0.1342953697E+01  0.1000000000E+01  0.4000000000E+00  0.7316089268E+01  0.1574455978E-15 -0.3255685844E+01  0.6494783769E+15  0.7331044634E+01  0.1583220356E-15 -0.3243965438E+01
  0.1246988935E+01  0.1000000000E+01  0.4000000000E+00  0.6251395690E+01  0.6554357306E-16 -0.3601295242E+01  0.6494783769E+15  0.6269199481E+01  0.6531104140E-16 -0.3583430954E+01
  0.1200000000E+01  0.1000000000E+01  0.4000000000E+00  0.5637933186E+01  0.3965059258E-16 -0.3271749539E+01  0.6494783769E+15  0.5649123426E+01  0.3963754730E-16 -0.3255752116E+01
ZONE I=6, J=6, K=1, F=POINT
  0.2000000000E+01  0.1000000000E+01  0.0000000000E+00  0.2401934025E+01  0.7363717223E-19  0.2123374863E+02  0.6494783768E+15  0.2430042695E+01  0.9484104938E-19  0.2215520388E+02
  0.1953011065E+01  0.1000000000E+01  0.0000000000E+00  0.1291282150E+01 -0.3732753274E-16 -0.1379056931E+00  0.6494783769E+15  0.1297619735E+01 -0.3612188300E-16 -0.1506937280E+00
  0.1857046303E+01  0.1000000000E+01  0.0000000000E+00 -0.3072973100E+00 -0.1883306800E-16  0.1520170734E+00  0.6494783769E+15 -0.3053086493E+00 -0.1918022562E-16  0.1504337203E+00
  0.1742953697E+01  0.1000000000E+01  0.0000000000E+00  0.1337047654E+00  0.2120492926E-18 -0.3732331728E-01  0.6494783769E+15  0.1368897834E+00  0.1066518638E-18 -0.3693882322E-01
  0.1646988935E+01  0.1000000000E+01  0.0000000000E+00 -0.1279036404E+00  0.3160692548E-18  0.6042443205E-01  0.6494783769E+15 -0.1243681408E+00  0.2780957158E-18  0.5960765432E-01
  0.1600000000E+01  0.1000000000E+01  0.0000000000E+00  0.8787637336E-01 -0.1008071060E-17 -0.8432190102E-01  0.6494783769E+15  0.9014098804E-01 -0.1125158782E-17 -0.8244774207E-01
  0.2000000000E+01  0.1000000000E+01  0.4698893521E-01 -0.1278022956E-01  0.7478692665E-18  0.4848220154E+02  0.6494783769E+15 -0.5517341061E-01  0.6868724986E-18  0.4865939864E+02
  0.1953011065E+01  0.1000000000E+01  0.4698893521E-01  0.1094878055E+02  0.1356812243E-15  0.1455263913E+01  0.6494783769E+15  0.1094314067E+02  0.1345336834E-15  0.1479502300E+01
  0.1857046303E+01  0.1000000000E+01  0.4698893521E-01  0.1160898857E+02  0.2868294517E-15 -0.1898371750E+01  0.6494783769E+15  0.1161947085E+02  0.2877169485E-15 -0.1890124030E+01
  0.1742953697E+01  0.1000000000E+01  0.4698893521E-01  0.5721339244E+01 -0.4144150598E-16 -0.6415613290E+00  0.6494783769E+15  0.5733808287E+01 -0.4113158116E-16 -0.6445719073E+00
  0.1646988935E+01  0.1000000000E+01  0.4698893521E-01  0.4448320541E+01 -0.1212312635E-15 -0.6250134361E+00  0.6494783769E+15  0.4455457369E+01 -0.1218023764E-15 -0.6269616652E+00
  0.1600000000E+01  0.1000000000E+01  0.4698893521E-01  0.2829726118E+01 -0.8466005316E-16  0.2153669087E+00  0.6494783769E+15  0.2843221371E+01 -0.8458216182E-16  0.2091379263E+00
  0.2000000000E+01  0.1000000000E+01  0.1429536967E+00 -0.2818123918E+00  0.2738242520E-17  0.5050270665E+02  0.6494783769E+15 -0.2575445124E+00  0.2756278269E-17  0.5044212366E+02
  0.1953011065E+01  0.1000000000E+01  0.1429536967E+00  0.2774897755E+01 -0.5126757264E-15  0.1635963339E+02  0.6494783769E+15  0.2766117929E+01 -0.5121346669E-15  0.1640404546E+02
  0.1857046303E+01  0.1000000000E+01  0.1429536967E+00  0.1267103047E+02 -0.2609830502E-15 -0.3645736070E+01  0.6494783769E+15  0.1268486399E+02 -0.2620418695E-15 -0.3635748865E+01
  0.1742953697E+01  0.1000000000E+01  0.1429536967E+00  0.9959721854E+01 -0.3055923886E-16 -0.4051763341E+01  0.6494783769E+15  0.9977086972E+01 -0.2937230113E-16 -0.4061812249E+01
  0.1646988935E+01  0.1000000000E+01  0.1429536967E+00  0.9360715190E+01 -0.1599337599E-15 -0.2028702136E+01  0.6494783769E+15  0.9363436692E+01 -0.1596384489E-15 -0.2033977877E+01
  0.1600000000E+01  0.1000000000E+01  0.1429536967E+00  0.6025910540E+01 -0.2824288764E-15 -0.1772665855E+01  0.6494783769E+15  0.6048861065E+01 -0.2828227294E-15 -0.1780014575E+01
  0.2000000000E+01  0.1000000000E+01  0.2570463033E+00  0.1912114764E-01  0.1127437033E-17  0.4987297802E+02  0.6494783769E+15  0.1815133534E-01  0.1087395022E-17  0.4987966047E+02