TITLE = "Generated from ../MESH/Convergence_0000000000.hmesh and Convergence_0000002600.hsol"
VARIABLES = "x","y","z","veloT_x","veloT_y","veloT_z","slr_4","velo_x","velo_y","velo_z"
ZONE I=6, J=6, K=1, F=POINT
  0.4000000000E+00  0.1000000000E+01  0.0000000000E+00 -0.1220151803E-01  0.2847245815E-19  0.7022364360E-02  0.6079308375E+15 -0.1193077083E-01  0.2821174748E-19  0.7490700763E-02
  0.3530110648E+00  0.1000000000E+01  0.0000000000E+00 -0.1464422732E-02  0.6938828613E-20 -0.4258275817E-03  0.6079308375E+15 -0.1185403570E-02  0.8944258430E-20 -0.3717741751E-03
  0.2570463033E+00  0.1000000000E+01  0.0000000000E+00 -0.5165993322E-04  0.6655808375E-21  0.2161908226E-02  0.6079308375E+15  0.2746342055E-03  0.1152349675E-20  0.2196553829E-02
  0.1429536967E+00  0.1000000000E+01  0.0000000000E+00 -0.1131296711E-02  0.1270434738E-21 -0.1064555757E-02  0.6079308375E+15 -0.5298481518E-03  0.2214183761E-21 -0.1041025406E-02
  0.4698893521E-01  0.1000000000E+01  0.0000000000E+00  0.1549426615E-02 -0.2310394215E-20  0.1998976703E-02  0.6079308375E+15  0.2138019090E-02 -0.2282732941E-20  0.1945901238E-02
  0.0000000000E+00  0.1000000000E+01  0.0000000000E+00 -0.7530946235E-02  0.9662343035E-23  0.2131784419E-02  0.6079308375E+15 -0.7484909275E-02  0.1248821063E-22  0.2047218014E-02
  0.4000000000E+00  0.1000000000E+01  0.4698893521E-01  0.2629932336E+00  0.2731291494E-17 -0.3826263958E-01  0.6079308375E+15  0.2621908118E+00  0.2736289504E-17 -0.4686338405E-01
  0.3530110648E+00  0.1000000000E+01  0.4698893521E-01  0.1254785315E+00  0.2423785341E-17 -0.1944751317E-02  0.6079308375E+15  0.1258805895E+00  0.2429749552E-17 -0.1021014617E-01
  0.2570463033E+00  0.1000000000E+01  0.4698893521E-01  0.1008475733E+00  0.8478358545E-18 -0.1366554482E-01  0.6079308375E+15  0.1006892989E+00  0.8364684796E-18 -0.2161935538E-01
  0.1429536967E+00  0.1000000000E+01  0.4698893521E-01  0.5905383437E-02  0.1479151547E-18 -0.8373455060E-02  0.6079308375E+15  0.5837671550E-02  0.1453945666E-18 -0.1222060000E-01
  0.4698893521E-01  0.1000000000E+01  0.4698893521E-01 -0.2233045016E-02  0.1508174946E-19 -0.7536550000E-02  0.6079308375E+15 -0.1410256870E-02  0.1659005882E-19 -0.8772855196E-02
  0.0000000000E+00  0.1000000000E+01  0.4698893521E-01 -0.1822093978E-01  0.9185140513E-21  0.2661500686E-02  0.6079308375E+15 -0.1809869556E-01  0.9436667691E-21  0.2046733462E-02
  0.4000000000E+00  0.1000000000E+01  0.1429536967E+00  0.5734840945E+00  0.8912251331E-17 -0.8980320906E-01  0.6079308375E+15  0.5675617141E+00  0.8832907533E-17 -0.1182380770E+00
  0.3530110648E+00  0.1000000000E+01  0.1429536967E+00  0.3218140875E+00  0.5072577494E-17 -0.1330726831E+00  0.6079308375E+15  0.3193045478E+00  0.5240737986E-17 -0.1580055700E+00
  0.2570463033E+00  0.1000000000E+01  0.1429536967E+00  0.2333888807E+00  0.1733607166E-17 -0.8616274787E-01  0.6079308375E+15  0.2283733106E+00  0.1721858634E-17 -0.1035519155E+00
  0.1429536967E+00  0.1000000000E+01  0.1429536967E+00  0.3971884575E-01  0.4751337204E-18 -0.1105903695E+00  0.6079308375E+15  0.3357212637E-01  0.4708027553E-18 -0.1182013399E+00
  0.4698893521E-01  0.1000000000E+01  0.1429536967E+00 -0.6335281537E-02  0.6518665323E-19 -0.1008340883E-01  0.6079308375E+15 -0.7716311156E-02  0.7518676859E-19 -0.1206972847E-01
  0.0000000000E+00  0.1000000000E+01  0.1429536967E+00 -0.2130648288E-01 -0.2025914961E-21 -0.7513051012E-03  0.6079308375E+15 -0.2127419028E-01  0.1498285041E-21 -0.1542946092E-02
  0.4000000000E+00  0.1000000000E+01  0.2570463033E+00  0.6331195221E+00  0.2030042597E-17 -0.3007197205E+00  0.6079308375E+15  0.6158715818E+00  0.2018209107E-17 -0.3445280889E+00
  0.3530110648E+00  0.1000000000E+01  0.2570463033E+00  0.4728157823E+00  0.1558569553E-17 -0.3559707259E+00  0.6079308375E+15  0.4564149814E+00  0.1026411478E-17 -0.3931127738E+00
  0.2570463033E+00  0.1000000000E+01  0.2570463033E+00  0.3051779379E+00  0.7915523308E-18 -0.2562486963E+00  0.6079308375E+15  0.2858993335E+00  0.7971922447E-18 -0.2773728027E+00
  0.1429536967E+00  0.1000000000E+01  0.2570463033E+00  0.9443553652E-01  0.7701091311E-18 -0.2687760779E+00  0.6079308375E+15  0.7853729467E-01  0.7734898555E-18 -0.2754037329E+00
  0.4698893521E-01  0.1000000000E+01  0.2570463033E+00  0.1021663359E-01  0.7801281630E-18 -0.5034067357E-01  0.6079308375E+15  0.5138960680E-02  0.7659392167E-18 -0.5144588020E-01
  0.0000000000E+00  0.1000000000E+01  0.2570463033E+00 -0.1408563256E-01 -0.2963843681E-20 -0.4031958035E-03  0.6079308375E+15 -0.1409981167E-01 -0.3755546671E-20 -0.1063908077E-02
  0.4000000000E+00  0.1000000000E+01  0.3530110648E+00  0.6485330037E+00  0.1870896411E-17 -0.5231921866E+00  0.6079308375E+15  0.6183423353E+00  0.1893192827E-17 -0.5679345009E+00
  0.3530110648E+00  0.1000000000E+01  0.3530110648E+00  0.4846396710E+00  0.1593790327E-17 -0.5491041700E+00  0.6079308375E+15  0.4521435769E+00  0.1587212518E-17 -0.5869201424E+00
  0.2570463033E+00  0.1000000000E+01  0.3530110648E+00  0.3165435908E+00  0.1449838526E-18 -0.4340534203E+00  0.6079308375E+15  0.2810768731E+00  0.4538714046E-18 -0.4553882435E+00
  0.1429536967E+00  0.1000000000E+01  0.3530110648E+00  0.1029508520E+00  0.1028600807E-17 -0.3939476333E+00  0.6079308375E+15  0.7823569541E-01  0.1079654353E-17 -0.4000142696E+00
  0.4698893521E-01  0.1000000000E+01  0.3530110648E+00  0.1599422624E-01  0.2870803867E-18 -0.1096796723E+00  0.6079308375E+15  0.8772274389E-02  0.2922641635E-18 -0.1102420398E+00
  0.0000000000E+00  0.1000000000E+01  0.3530110648E+00 -0.1425509243E-01  0.5830132062E-20 -0.4625911872E-03  0.6079308375E+15 -0.1424888986E-01  0.5231652971E-20 -0.1121823338E-02
  0.4000000000E+00  0.1000000000E+01  0.4000000000E+00  0.6218352830E+00  0.3854849492E-17 -0.6386948580E+00  0.6079308375E+15  0.5857293558E+00  0.3858173116E-17 -0.6795366420E+00
  0.3530110648E+00  0.1000000000E+01  0.4000000000E+00  0.5080107485E+00  0.3120082385E-17 -0.6553147613E+00  0.6079308375E+15  0.4683292908E+00  0.3202203285E-17 -0.6892870449E+00
  0.2570463033E+00  0.1000000000E+01  0.4000000000E+00  0.3180133623E+00  0.6222695719E-18 -0.5248686128E+00  0.6079308375E+15  0.2753739511E+00  0.5251006939E-18 -0.5464500148E+00
  0.1429536967E+00  0.1000000000E+01  0.4000000000E+00  0.1156955485E+00  0.1284909184E-17 -0.4617589065E+00  0.6079308375E+15  0.8650529020E-01  0.1206526321E-17 -0.4699920805E+00
  0.4698893521E-01  0.1000000000E+01  0.4000000000E+00  0.1403121688E-01  0.2749642048E-18 -0.1383646949E+00  0.6079308375E+15  0.5408014655E-02  0.2790626179E-18 -0.1394482401E+00
  0.0000000000E+00  0.1000000000E+01  0.4000000000E+00 -0.6930746510E-02  0.7805251997E-20 -0.2123084016E-02  0.6079308375E+15 -0.6629782013E-02  0.7866423757E-20 -0.2672980537E-02
ZONE I=6, J=6, K=1, F=POINT
  0.8000000000E+00  0.1000000000E+01  0.0000000000E+00  0.1675690207E-01 -0.8263246297E-19 -0.1152899450E-01  0.6079308375E+15  0.1777081358E-01 -0.8431225344E-19 -0.1122979592E-01
  0.7530110648E+00  0.1000000000E+01  0.0000000000E+00  0.8495543922E-03  0.5139367700E-19  0.5791233630E-02  0.6079308375E+15  0.1752163947E-02  0.7599706594E-19  0.5889008112E-02
  0.6570463033E+00  0.1000000000E+01  0.0000000000E+00 -0.1678196256E-02  0.5811927142E-20  0.2531507770E-03  0.6079308375E+15 -0.9875567365E-03  0.1747919935E-19  0.2846663512E-03
  0.5429536967E+00  0.1000000000E+01  0.0000000000E+00 -0.2758606088E-03 -0.3648068471E-20  0.6745720978E-02  0.6079308375E+15  0.4192293846E-03  0.1859772423E-19  0.6853540890E-02
  0.4469889352E+00  0.1000000000E+01  0.0000000000E+00 -0.2778130752E-02 -0.6762630517E-19  0.5480071250E-03  0.6079308375E+15 -0.2025968358E-02 -0.4056931419E-19  0.5628591810E-03
  0.4000000000E+00  0.1000000000E+01  0.0000000000E+00  0.1417175152E-01  0.3213714598E-19  0.6696869093E-02  0.6079308375E+15  0.1477862242E-01  0.3188708621E-19  0.7173061938E-02
  0.8000000000E+00  0.1000000000E+01  0.4698893521E-01  0.3061111457E+00 -0.2516380700E-16  0.1061864990E-01  0.6079308375E+15  0.3081899343E+00 -0.2518128040E-16 -0.8222598028E-02
  0.7530110648E+00  0.1000000000E+01  0.4698893521E-01  0.5022171491E+00 -0.2438871438E-16 -0.4683674188E-01  0.6079308375E+15  0.5030087907E+00 -0.2441117854E-16 -0.6650343991E-01
  0.6570463033E+00  0.1000000000E+01  0.4698893521E-01  0.2897630750E+00 -0.5331566131E-17 -0.1229920857E-01  0.6079308375E+15  0.2894744609E+00 -0.5363903732E-17 -0.3245974406E-01
  0.5429536967E+00  0.1000000000E+01  0.4698893521E-01  0.3241528909E+00  0.4088262042E-17 -0.6635979879E-03  0.6079308375E+15  0.3227893633E+00  0.4054435244E-17 -0.1821966801E-01
  0.4469889352E+00  0.1000000000E+01  0.4698893521E-01  0.1991021379E+00  0.3701026595E-17  0.5765530747E-02  0.6079308375E+15  0.1971628543E+00  0.3722320421E-17 -0.5407987593E-02
  0.4000000000E+00  0.1000000000E+01  0.4698893521E-01  0.3048622569E+00  0.2491572328E-17 -0.3902613628E-01  0.6079308375E+15  0.3039247215E+00  0.2497119494E-17 -0.4761744378E-01
  0.8000000000E+00  0.1000000000E+01  0.1429536967E+00  0.9149023182E+00 -0.5674032374E-16 -0.3213336364E+00  0.6079308375E+15  0.9204040040E+00 -0.5656357701E-16 -0.3600291980E+00
  0.7530110648E+00  0.1000000000E+01  0.1429536967E+00  0.1222828308E+01 -0.3657656723E-16 -0.1757191401E+00  0.6079308375E+15  0.1226083368E+01 -0.3632886771E-16 -0.2167653233E+00
  0.6570463033E+00  0.1000000000E+01  0.1429536967E+00  0.8142554376E+00 -0.5563256342E-17 -0.1660038234E+00  0.6079308375E+15  0.8134808140E+00 -0.5559137578E-17 -0.2089370595E+00
  0.5429536967E+00  0.1000000000E+01  0.1429536967E+00  0.7774987788E+00  0.8611607498E-17 -0.2237523415E-01  0.6079308375E+15  0.7701914544E+00  0.8379152857E-17 -0.6115026709E-01
  0.4469889352E+00  0.1000000000E+01  0.1429536967E+00  0.4971343266E+00  0.8620783260E-17 -0.1085472926E+00  0.6079308375E+15  0.4876291453E+00  0.8842938773E-17 -0.1405082544E+00
  0.4000000000E+00  0.1000000000E+01  0.1429536967E+00  0.6244063436E+00  0.9617262703E-17 -0.8925016543E-01  0.6079308375E+15  0.6185861919E+00  0.9539130307E-17 -0.1176960672E+00
  0.8000000000E+00  0.1000000000E+01  0.2570463033E+00  0.1698665063E+01 -0.1720372469E-16 -0.7818926081E+00  0.6079308375E+15  0.1715284456E+01 -0.1717963835E-16 -0.8265217511E+00
  0.7530110648E+00  0.1000000000E+01  0.2570463033E+00  0.1607465500E+01 -0.1251519754E-16 -0.5339510667E+00  0.6079308375E+15  0.1618820761E+01 -0.1328133718E-16 -0.5837868571E+00
  0.6570463033E+00  0.1000000000E+01  0.2570463033E+00  0.1215727481E+01 -0.6177893625E-17 -0.4774129147E+00  0.6079308375E+15  0.1215913661E+01 -0.6162925387E-17 -0.5332330796E+00
  0.5429536967E+00  0.1000000000E+01  0.2570463033E+00  0.9605984503E+00  0.5869785155E-18 -0.2254335075E+00  0.6079308375E+15  0.9480189910E+00  0.3938279710E-18 -0.2808739943E+00
  0.4469889352E+00  0.1000000000E+01  0.2570463033E+00  0.6894620192E+00  0.2402568914E-17 -0.3383918888E+00  0.6079308375E+15  0.6709442474E+00  0.1782111341E-17 -0.3875606438E+00
  0.4000000000E+00  0.1000000000E+01  0.2570463033E+00  0.6643622681E+00  0.2056434477E-17 -0.3000831463E+00  0.6079308375E+15  0.6465843859E+00  0.2041390037E-17 -0.3439316544E+00
  0.8000000000E+00  0.1000000000E+01  0.3530110648E+00  0.1730759349E+01 -0.3864356913E-17 -0.1160917111E+01  0.6079308375E+15  0.1761933176E+01 -0.3908970835E-17 -0.1201199686E+01
  0.7530110648E+00  0.1000000000E+01  0.3530110648E+00  0.1682831414E+01 -0.3753201231E-18 -0.9530731003E+00  0.6079308375E+15  0.1705553630E+01  0.8657076442E-18 -0.1000158104E+01
  0.6570463033E+00  0.1000000000E+01  0.3530110648E+00  0.1278801170E+01 -0.3763319880E-17 -0.7917652023E+00  0.6079308375E+15  0.1284522946E+01 -0.3124577361E-17 -0.8495112608E+00
  0.5429536967E+00  0.1000000000E+01  0.3530110648E+00  0.9936026285E+00 -0.4190188058E-17 -0.5023729570E+00  0.6079308375E+15  0.9775744091E+00 -0.2684161291E-17 -0.5625734750E+00
  0.4469889352E+00  0.1000000000E+01  0.3530110648E+00  0.6826042535E+00  0.1055134995E-17 -0.5545324417E+00  0.6079308375E+15  0.6527023287E+00  0.1437972863E-17 -0.6059454813E+00
  0.4000000000E+00  0.1000000000E+01  0.3530110648E+00  0.6808351160E+00  0.1842854577E-17 -0.5230035694E+00  0.6079308375E+15  0.6499514514E+00  0.1869512814E-17 -0.5677583636E+00
  0.8000000000E+00  0.1000000000E+01  0.4000000000E+00  0.1749934122E+01 -0.1084697571E-16 -0.1389821963E+01  0.6079308375E+15  0.1787788679E+01 -0.1084436425E-16 -0.1423241374E+01
  0.7530110648E+00  0.1000000000E+01  0.4000000000E+00  0.1581656059E+01 -0.6956263517E-17 -0.1123831273E+01  0.6079308375E+15  0.1611336743E+01 -0.6719027198E-17 -0.1163784301E+01
  0.6570463033E+00  0.1000000000E+01  0.4000000000E+00  0.1239163509E+01 -0.3617760594E-17 -0.9591594161E+00  0.6079308375E+15  0.1248740835E+01 -0.3868524935E-17 -0.1011416729E+01
  0.5429536967E+00  0.1000000000E+01  0.4000000000E+00  0.9463140291E+00  0.3350111136E-17 -0.6871094050E+00  0.6079308375E+15  0.9282217958E+00  0.2406708660E-17 -0.7414746641E+00
  0.4469889352E+00  0.1000000000E+01  0.4000000000E+00  0.7187135997E+00  0.4754641627E-17 -0.6926649574E+00  0.6079308375E+15  0.6830869870E+00  0.4160412861E-17 -0.7389269364E+00
  0.4000000000E+00  0.1000000000E+01  0.4000000000E+00  0.6327121805E+00  0.3869828183E-17 -0.6379728782E+00  0.6079308375E+15  0.5958791237E+00  0.3873800303E-17 -0.6788750749E+00
ZONE I=6, J=6, K=1, F=POINT
  0.1200000000E+01  0.1000000000E+01  0.0000000000E+00 -0.3099175554E-01  0.5870474660E-19  0.3695698376E-01  0.6079308375E+15 -0.3090055318E-01  0.6038080231E-19  0.3691753124E-01
  0.1153011065E+01  0.1000000000E+01  0.0000000000E+00 -0.4631702721E-02 -0.2012853122E-18 -0.9473977893E-02  0.6079308375E+15 -0.4476495877E-02 -0.1881596185E-18 -0.9396386280E-02
  0.1057046303E+01  0.1000000000E+01  0.0000000000E+00  0.2348071215E-02  0.2797482230E-19  0.5922725269E-02  0.6079308375E+15  0.2818021817E-02  0.3928942938E-19  0.6058963530E-02
  0.9429536967E+00  0.1000000000E+01  0.0000000000E+00 -0.2054267442E-02  0.5713365773E-20 -0.8256784893E-02  0.6079308375E+15 -0.1282448517E-02  0.9408793621E-20 -0.8161726391E-02
  0.8469889352E+00  0.1000000000E+01  0.0000000000E+00  0.3206490033E-02 -0.1893909706E-19  0.5308813632E-02  0.6079308375E+15  0.4016566267E-02 -0.1748237299E-19  0.5424426646E-02
  0.8000000000E+00  0.1000000000E+01  0.0000000000E+00 -0.2794824183E-01 -0.9246637275E-19 -0.1102032986E-01  0.6079308375E+15 -0.2720113605E-01 -0.9416714599E-19 -0.1072473550E-01
  0.1200000000E+01  0.1000000000E+01  0.4698893521E-01  0.2060615070E+01 -0.4174566685E-16 -0.2220449467E+00  0.6079308375E+15  0.2063905352E+01 -0.4186701662E-16 -0.2149843584E+00
  0.1153011065E+01  0.1000000000E+01  0.4698893521E-01  0.1390889969E+01 -0.2651122303E-16 -0.7287205037E-01  0.6079308375E+15  0.1394413368E+01 -0.2662532090E-16 -0.6815405712E-01
  0.1057046303E+01  0.1000000000E+01  0.4698893521E-01  0.1282058374E+01 -0.1312015567E-16 -0.9979326009E-01  0.6079308375E+15  0.1285754299E+01 -0.1308054140E-16 -0.1027324796E+00
  0.9429536967E+00  0.1000000000E+01  0.4698893521E-01  0.7098605116E+00 -0.1614056288E-16 -0.8173625667E-01  0.6079308375E+15  0.7140775429E+00 -0.1625924580E-16 -0.9265373728E-01
  0.8469889352E+00  0.1000000000E+01  0.4698893521E-01  0.6263448327E+00 -0.2926000116E-16 -0.7742681733E-01  0.6079308375E+15  0.6298404278E+00 -0.2940088992E-16 -0.9405039065E-01
  0.8000000000E+00  0.1000000000E+01  0.4698893521E-01  0.2450498288E+00 -0.2446463146E-16  0.1265916401E-01  0.6079308375E+15  0.2474164067E+00 -0.2449040318E-16 -0.6223646187E-02
  0.1200000000E+01  0.1000000000E+01  0.1429536967E+00  0.4623336104E+01 -0.5882827719E-16 -0.5814340834E+00  0.6079308375E+15  0.4634841557E+01 -0.5902404797E-16 -0.5784914803E+00
  0.1153011065E+01  0.1000000000E+01  0.1429536967E+00  0.3205866319E+01 -0.6990202402E-16 -0.7831931615E+00  0.6079308375E+15  0.3218371514E+01 -0.6925102052E-16 -0.7834240098E+00
  0.1057046303E+01  0.1000000000E+01  0.1429536967E+00  0.2901337571E+01 -0.4203995094E-16 -0.5645187030E+00  0.6079308375E+15  0.2916109244E+01 -0.4208632887E-16 -0.5754598338E+00
  0.9429536967E+00  0.1000000000E+01  0.1429536967E+00  0.1743157338E+01 -0.3769471870E-16 -0.6735464467E+00  0.6079308375E+15  0.1756994457E+01 -0.3771262754E-16 -0.6991197650E+00
  0.8469889352E+00  0.1000000000E+01  0.1429536967E+00  0.1520559834E+01 -0.5314178064E-16 -0.3398435855E+00  0.6079308375E+15  0.1530898738E+01 -0.5320881288E-16 -0.3752799224E+00
  0.8000000000E+00  0.1000000000E+01  0.1429536967E+00  0.8307310227E+00 -0.5897588905E-16 -0.3229135889E+00  0.6079308375E+15  0.8386782985E+00 -0.5878608900E-16 -0.3615875352E+00
  0.1200000000E+01  0.1000000000E+01  0.2570463033E+00  0.4438793214E+01 -0.1258355746E-16 -0.1545618476E+01  0.6079308375E+15  0.4452989963E+01 -0.1252942406E-16 -0.1550070251E+01
  0.1153011065E+01  0.1000000000E+01  0.2570463033E+00  0.3958459575E+01 -0.4674458390E-16 -0.1785575328E+01  0.6079308375E+15  0.3979232434E+01 -0.4895578842E-16 -0.1793325554E+01
  0.1057046303E+01  0.1000000000E+01  0.2570463033E+00  0.3252781088E+01 -0.4056753083E-16 -0.1389276918E+01  0.6079308375E+15  0.3280684939E+01 -0.4052113594E-16 -0.1403824513E+01
  0.9429536967E+00  0.1000000000E+01  0.2570463033E+00  0.2444037033E+01 -0.3703469522E-16 -0.1452091440E+01  0.6079308375E+15  0.2472169919E+01 -0.3850748890E-16 -0.1478051370E+01
  0.8469889352E+00  0.1000000000E+01  0.2570463033E+00  0.2013753998E+01 -0.1980405395E-16 -0.8506722575E+00  0.6079308375E+15  0.2036278583E+01 -0.1958101346E-16 -0.8892670884E+00
  0.8000000000E+00  0.1000000000E+01  0.2570463033E+00  0.1661303291E+01 -0.1734836981E-16 -0.7842777153E+00  0.6079308375E+15  0.1678306561E+01 -0.1733398177E-16 -0.8286059992E+00
  0.1200000000E+01  0.1000000000E+01  0.3530110648E+00  0.4384131223E+01  0.2014535847E-16 -0.2549552200E+01  0.6079308375E+15  0.4403219122E+01  0.2017120788E-16 -0.2564241069E+01
  0.1153011065E+01  0.1000000000E+01  0.3530110648E+00  0.3727431664E+01 -0.2951220584E-18 -0.2457453925E+01  0.6079308375E+15  0.3753259638E+01 -0.6121845639E-18 -0.2473574273E+01
  0.1057046303E+01  0.1000000000E+01  0.3530110648E+00  0.3155550516E+01 -0.1989356853E-16 -0.2076694320E+01  0.6079308375E+15  0.3188735692E+01 -0.1966970374E-16 -0.2095125385E+01
  0.9429536967E+00  0.1000000000E+01  0.3530110648E+00  0.2403253623E+01 -0.2367651322E-16 -0.1898052347E+01  0.6079308375E+15  0.2441173456E+01 -0.2471336298E-16 -0.1921502785E+01
  0.8469889352E+00  0.1000000000E+01  0.3530110648E+00  0.2089552512E+01 -0.9049853497E-17 -0.1334239867E+01  0.6079308375E+15  0.2126494054E+01 -0.7724841992E-17 -0.1367574579E+01
  0.8000000000E+00  0.1000000000E+01  0.3530110648E+00  0.1684773100E+01 -0.3805865241E-17 -0.1161147274E+01  0.6079308375E+15  0.1716442037E+01 -0.3856332899E-17 -0.1201468636E+01
  0.1200000000E+01  0.1000000000E+01  0.4000000000E+00  0.3965975119E+01  0.2297427852E-16 -0.2782639074E+01  0.6079308375E+15  0.3985259895E+01  0.2298701741E-16 -0.2809792733E+01
  0.1153011065E+01  0.1000000000E+01  0.4000000000E+00  0.3675514461E+01  0.1369400994E-16 -0.2874715056E+01  0.6079308375E+15  0.3701257027E+01  0.1419674815E-16 -0.2901600751E+01
  0.1057046303E+01  0.1000000000E+01  0.4000000000E+00  0.2975805461E+01 -0.9882670240E-17 -0.2365694488E+01  0.6079308375E+15  0.3009898513E+01 -0.9729636302E-17 -0.2392316480E+01
  0.9429536967E+00  0.1000000000E+01  0.4000000000E+00  0.2359344444E+01 -0.2370543104E-16 -0.2165096518E+01  0.6079308375E+15  0.2399405876E+01 -0.2468885117E-16 -0.2193841878E+01
  0.8469889352E+00  0.1000000000E+01  0.4000000000E+00  0.1949914393E+01 -0.1691113291E-16 -0.1526544209E+01  0.6079308375E+15  0.1991394347E+01 -0.1648614653E-16 -0.1557214412E+01
  0.8000000000E+00  0.1000000000E+01  0.4000000000E+00  0.1746446475E+01 -0.1082511798E-16 -0.1392968990E+01  0.6079308375E+15  0.1784101981E+01 -0.1082776028E-16 -0.1426113657E+01
ZONE I=6, J=6, K=1, F=POINT
  0.1600000000E+01  0.1000000000E+01  0.0000000000E+00  0.1313497645E+00 -0.8826456813E-18 -0.7268236792E-01  0.6079308375E+15  0.1300853631E+00 -0.1006028178E-17 -0.7218161070E-01
  0.1553011065E+01  0.1000000000E+01  0.0000000000E+00  0.1098457948E-01 -0.1341834375E-17  0.4530060308E-01  0.6079308375E+15  0.1003900351E-01 -0.1328928538E-17  0.4514258548E-01
  0.1457046303E+01  0.1000000000E+01  0.0000000000E+00 -0.6859647430E-02 -0.9095894012E-19 -0.3297840208E-02  0.6079308375E+15 -0.7799092389E-02 -0.8820919009E-19 -0.3255388208E-02
  0.1342953697E+01  0.1000000000E+01  0.0000000000E+00  0.5902366723E-02  0.4359380766E-18  0.2991373590E-01  0.6079308375E+15  0.5444383804E-02  0.4122379270E-18  0.2990929411E-01
  0.1246988935E+01  0.1000000000E+01  0.0000000000E+00 -0.7194565460E-02  0.1259681415E-18 -0.8173629646E-02  0.6079308375E+15 -0.7248773410E-02  0.1231804266E-18 -0.8101211601E-02
  0.1200000000E+01  0.1000000000E+01  0.0000000000E+00  0.5809500658E-01  0.6272297723E-19  0.3699860329E-01  0.6079308375E+15  0.5817546499E-01  0.6466493320E-19  0.3699576951E-01
  0.1600000000E+01  0.1000000000E+01  0.4698893521E-01  0.2949323763E+01 -0.8972475013E-16  0.1927556348E+00  0.6079308375E+15  0.2947804563E+01 -0.8968444779E-16  0.1941398517E+00
  0.1553011065E+01  0.1000000000E+01  0.4698893521E-01  0.3382691725E+01 -0.4529597597E-16 -0.3092138532E+00  0.6079308375E+15  0.3381889058E+01 -0.4532179512E-16 -0.3070058920E+00
  0.1457046303E+01  0.1000000000E+01  0.4698893521E-01  0.2360596208E+01 -0.5537146763E-17 -0.1104392979E+00  0.6079308375E+15  0.2360230192E+01 -0.5509787149E-17 -0.1066538055E+00
  0.1342953697E+01  0.1000000000E+01  0.4698893521E-01  0.2334701021E+01  0.2942712019E-16 -0.7992950684E-01  0.6079308375E+15  0.2334941003E+01  0.2943052008E-16 -0.7434708232E-01
  0.1246988935E+01  0.1000000000E+01  0.4698893521E-01  0.1782042608E+01 -0.6008333972E-17 -0.4587493176E-01  0.6079308375E+15  0.1783324864E+01 -0.5959910441E-17 -0.3831374118E-01
  0.1200000000E+01  0.1000000000E+01  0.4698893521E-01  0.2158170952E+01 -0.4593551667E-16 -0.2277243095E+00  0.6079308375E+15  0.2159402523E+01 -0.4602215508E-16 -0.2202973705E+00
  0.1600000000E+01  0.1000000000E+01  0.1429536967E+00  0.5971986148E+01 -0.2678178962E-15 -0.1997046731E+01  0.6079308375E+15  0.5955117561E+01 -0.2679081132E-15 -0.1994996684E+01
  0.1553011065E+01  0.1000000000E+01  0.1429536967E+00  0.7576037476E+01 -0.1489873785E-15 -0.1127124957E+01  0.6079308375E+15  0.7571979863E+01 -0.1490093351E-15 -0.1124225823E+01
  0.1457046303E+01  0.1000000000E+01  0.1429536967E+00  0.5406806625E+01  0.3157078512E-16 -0.1027226610E+01  0.6079308375E+15  0.5405475926E+01  0.3128583222E-16 -0.1021611230E+01
  0.1342953697E+01  0.1000000000E+01  0.1429536967E+00  0.5344081954E+01  0.1029796650E-15 -0.2236488855E+00  0.6079308375E+15  0.5343233801E+01  0.1029593717E-15 -0.2168673138E+00
  0.1246988935E+01  0.1000000000E+01  0.1429536967E+00  0.4039157894E+01  0.2675250219E-16 -0.7112883216E+00  0.6079308375E+15  0.4042450457E+01  0.2663510652E-16 -0.7055240512E+00
  0.1200000000E+01  0.1000000000E+01  0.1429536967E+00  0.4787909571E+01 -0.6298813590E-16 -0.5763272081E+00  0.6079308375E+15  0.4790283360E+01 -0.6307920547E-16 -0.5739410201E+00
  0.1600000000E+01  0.1000000000E+01  0.2570463033E+00  0.1035466331E+02  0.8099998667E-16 -0.4111791908E+01  0.6079308375E+15  0.1036114575E+02  0.8095069566E-16 -0.4112033313E+01
  0.1553011065E+01  0.1000000000E+01  0.2570463033E+00  0.9176318468E+01  0.1058088676E-15 -0.2921945525E+01  0.6079308375E+15  0.9175279610E+01  0.1057321509E-15 -0.2919769722E+01
  0.1457046303E+01  0.1000000000E+01  0.2570463033E+00  0.7677729218E+01  0.1788702115E-15 -0.2576648191E+01  0.6079308375E+15  0.7675663201E+01  0.1786177313E-15 -0.2576953336E+01
  0.1342953697E+01  0.1000000000E+01  0.2570463033E+00  0.6034914067E+01  0.1323452557E-15 -0.1194876155E+01  0.6079308375E+15  0.6036790959E+01  0.1324119193E-15 -0.1196059090E+01
  0.1246988935E+01  0.1000000000E+01  0.2570463033E+00  0.4862071393E+01  0.3958594655E-16 -0.1792713388E+01  0.6079308375E+15  0.4870423815E+01  0.3994826440E-16 -0.1795244719E+01
  0.1200000000E+01  0.1000000000E+01  0.2570463033E+00  0.4478414411E+01 -0.1287959704E-16 -0.1536961162E+01  0.6079308375E+15  0.4493325852E+01 -0.1283383839E-16 -0.1543653868E+01
  0.1600000000E+01  0.1000000000E+01  0.3530110648E+00  0.8434287295E+01  0.1592703187E-15 -0.4885196223E+01  0.6079308375E+15  0.8437802001E+01  0.1592226489E-15 -0.4880270913E+01
  0.1553011065E+01  0.1000000000E+01  0.3530110648E+00  0.8500846536E+01  0.1719145030E-15 -0.4638360004E+01  0.6079308375E+15  0.8505654162E+01  0.1719353863E-15 -0.4637869628E+01
  0.1457046303E+01  0.1000000000E+01  0.3530110648E+00  0.7145829261E+01  0.1792206818E-15 -0.3848289215E+01  0.6079308375E+15  0.7147946533E+01  0.1793297669E-15 -0.3855594895E+01
  0.1342953697E+01  0.1000000000E+01  0.3530110648E+00  0.5851996223E+01  0.1401769742E-15 -0.2671208269E+01  0.6079308375E+15  0.5854976983E+01  0.1403592359E-15 -0.2682854220E+01
  0.1246988935E+01  0.1000000000E+01  0.3530110648E+00  0.4519735492E+01  0.5363005118E-16 -0.2642624011E+01  0.6079308375E+15  0.4530851322E+01  0.5351550600E-16 -0.2656009528E+01
  0.1200000000E+01  0.1000000000E+01  0.3530110648E+00  0.4460498236E+01  0.2024112326E-16 -0.2550233741E+01  0.6079308375E+15  0.4476698092E+01  0.2023724668E-16 -0.2564526515E+01
  0.1600000000E+01  0.1000000000E+01  0.4000000000E+00  0.8460830229E+01  0.1529011468E-15 -0.5759478768E+01  0.6079308375E+15  0.8468832316E+01  0.1528390834E-15 -0.5763245092E+01
  0.1553011065E+01  0.1000000000E+01  0.4000000000E+00  0.7666745188E+01  0.1772968708E-15 -0.4781429899E+01  0.6079308375E+15  0.7676510641E+01  0.1772118760E-15 -0.4785421613E+01
  0.1457046303E+01  0.1000000000E+01  0.4000000000E+00  0.6878959997E+01  0.1644029791E-15 -0.4440921757E+01  0.6079308375E+15  0.6883296986E+01  0.1643733159E-15 -0.4448808442E+01
  0.1342953697E+01  0.1000000000E+01  0.4000000000E+00  0.5441687245E+01  0.1436424404E-15 -0.3058541490E+01  0.6079308375E+15  0.5448041136E+01  0.1437229592E-15 -0.3076492077E+01
  0.1246988935E+01  0.1000000000E+01  0.4000000000E+00  0.4481931534E+01  0.5079326311E-16 -0.3153329290E+01  0.6079308375E+15  0.4494182934E+01  0.5085754668E-16 -0.3177826162E+01
  0.1200000000E+01  0.1000000000E+01  0.4000000000E+00  0.3939918807E+01  0.2323526968E-16 -0.2771605711E+01  0.6079308375E+15  0.3960459579E+01  0.2323250779E-16 -0.2800845045E+01
ZONE I=6, J=6, K=1, F=POINT
  0.2000000000E+01  0.1000000000E+01  0.0000000000E+00  0.2402664867E+01  0.7388517888E-19  0.2123418889E+02  0.6079308375E+15  0.2430564859E+01  0.9460413373E-19  0.2215543071E+02
  0.1953011065E+01  0.1000000000E+01  0.0000000000E+00  0.1292220920E+01 -0.3738948063E-16 -0.1370422072E+00  0.6079308375E+15  0.1296230803E+01 -0.3612275171E-16 -0.1501668172E+00
  0.1857046303E+01  0.1000000000E+01  0.0000000000E+00 -0.3059405726E+00 -0.1878002412E-16  0.1518113022E+00  0.6079308375E+15 -0.3067400245E+00 -0.1927600024E-16  0.1503874772E+00
  0.1742953697E+01  0.1000000000E+01  0.0000000000E+00  0.1353764704E+00  0.2415688010E-18 -0.3767649656E-01  0.6079308375E+15  0.1358354954E+00  0.1413069691E-18 -0.3727405406E-01
  0.1646988935E+01  0.1000000000E+01  0.0000000000E+00 -0.1262584378E+00  0.3497077445E-18  0.6075807373E-01  0.6079308375E+15 -0.1261871891E+00  0.3146594966E-18  0.5981324290E-01
  0.1600000000E+01  0.1000000000E+01  0.0000000000E+00  0.8935655926E-01 -0.9606955357E-18 -0.8490305464E-01  0.6079308375E+15  0.8839249370E-01 -0.1086351530E-17 -0.8302930037E-01
  0.2000000000E+01  0.1000000000E+01  0.4698893521E-01 -0.1133662938E-01  0.7432300559E-18  0.4848352913E+02  0.6079308375E+15 -0.5386145530E-01  0.6869466467E-18  0.4865826357E+02
  0.1953011065E+01  0.1000000000E+01  0.4698893521E-01  0.1097592495E+02  0.1400482985E-15  0.1479775521E+01  0.6079308375E+15  0.1096580298E+02  0.1388371216E-15  0.1498932146E+01
  0.1857046303E+01  0.1000000000E+01  0.4698893521E-01  0.1173468630E+02  0.3002766584E-15 -0.1874526073E+01  0.6079308375E+15  0.1173869280E+02  0.3006869887E-15 -0.1869799733E+01
  0.1742953697E+01  0.1000000000E+01  0.4698893521E-01  0.5846901467E+01 -0.2909611883E-16 -0.6739477520E+00  0.6079308375E+15  0.5853132226E+01 -0.2876834798E-16 -0.6738579023E+00
  0.1646988935E+01  0.1000000000E+01  0.4698893521E-01  0.4445300702E+01 -0.1203525413E-15 -0.6647728442E+00  0.6079308375E+15  0.4446360201E+01 -0.1206030608E-15 -0.6622555629E+00
  0.1600000000E+01  0.1000000000E+01  0.4698893521E-01  0.2787208514E+01 -0.8690769420E-16  0.1784686214E+00  0.6079308375E+15  0.2795166026E+01 -0.8668495604E-16  0.1745639452E+00
  0.2000000000E+01  0.1000000000E+01  0.1429536967E+00 -0.2815170636E+00  0.2694961901E-17  0.5050419053E+02  0.6079308375E+15 -0.2569347461E+00  0.2715272283E-17  0.5044089282E+02
  0.1953011065E+01  0.1000000000E+01  0.1429536967E+00  0.2816673750E+01 -0.5129279452E-15  0.1648588601E+02  0.6079308375E+15  0.2803430065E+01 -0.5127800303E-15  0.1652546908E+02
  0.1857046303E+01  0.1000000000E+01  0.1429536967E+00  0.1279604464E+02 -0.2507720483E-15 -0.3563368252E+01  0.6079308375E+15  0.1279556480E+02 -0.2510005866E-15 -0.3552433753E+01
  0.1742953697E+01  0.1000000000E+01  0.1429536967E+00  0.9931214739E+01  0.3057717174E-17 -0.4246114447E+01  0.6079308375E+15  0.9937941358E+01  0.3122009025E-17 -0.4243867412E+01
  0.1646988935E+01  0.1000000000E+01  0.1429536967E+00  0.9057790288E+01 -0.1553972247E-15 -0.2271066709E+01  0.6079308375E+15  0.9060849333E+01 -0.1551245429E-15 -0.2267886705E+01
  0.1600000000E+01  0.1000000000E+01  0.1429536967E+00  0.5604205523E+01 -0.2841579788E-15 -0.1996637522E+01  0.6079308375E+15  0.5626299512E+01 -0.2846429393E-15 -0.1999574098E+01
  0.2000000000E+01  0.1000000000E+01  0.2570463033E+00  0.1891412187E-01  0.1083768858E-17  0.4987324498E+02  0.6079308375E+15  0.1807015390E-01  0.1035887013E-17  0.4987813795E+02