TITLE = "Generated from ../MESH/Convergence_0000000000.hmesh and Convergence_0000008400.hsol"
VARIABLES = "x","y","z","veloT_x","veloT_y","veloT_z","slr_4","velo_x","velo_y","velo_z"
ZONE I=6, J=6, K=1, F=POINT
  0.4000000000E+00  0.1000000000E+01  0.0000000000E+00 -0.6096559759E-01  0.8719707593E-20  0.7768247271E-02  0.1265200552E+16 -0.3555853548E-01  0.5682671993E-20  0.8160820157E-02
  0.3530110648E+00  0.1000000000E+01  0.0000000000E+00 -0.5046986091E-01  0.1686458061E-19  0.5092520318E-03  0.1265200552E+16 -0.2250323560E-01  0.3021297469E-21  0.4545679036E-03
  0.2570463033E+00  0.1000000000E+01  0.0000000000E+00 -0.3810570252E-01  0.5386934808E-20  0.3856764428E-02  0.1265200552E+16 -0.1474148354E-01 -0.2347320585E-20  0.3378114568E-02
  0.1429536967E+00  0.1000000000E+01  0.0000000000E+00 -0.3473637370E-01  0.2351535579E-20 -0.1048487089E-02  0.1265200552E+16 -0.1376818679E-01  0.2997582521E-21 -0.1409090183E-02
  0.4698893521E-01  0.1000000000E+01  0.0000000000E+00 -0.2376473543E-01 -0.4325359844E-20  0.5634937587E-02  0.1265200552E+16 -0.9069850571E-02 -0.6194898812E-20  0.4809645256E-02
  0.0000000000E+00  0.1000000000E+01  0.0000000000E+00 -0.1051356477E-01  0.5149435810E-22  0.5127458496E-02  0.1265200552E+16 -0.9704176096E-02  0.5830286017E-22  0.4107433664E-02
  0.4000000000E+00  0.1000000000E+01  0.4698893521E-01  0.1625455776E+00  0.4166762649E-17 -0.2017713245E+00  0.1265200552E+16  0.1534495757E+00  0.4214434014E-17  0.3522472798E-01
  0.3530110648E+00  0.1000000000E+01  0.4698893521E-01  0.1921397400E-01  0.4535765167E-17 -0.1302077942E+00  0.1265200552E+16  0.2089635550E-01  0.4251505831E-17  0.8448505816E-01
  0.2570463033E+00  0.1000000000E+01  0.4698893521E-01  0.5896294258E-02  0.1404023350E-17 -0.8880477369E-01  0.1265200552E+16  0.1558796589E-01  0.1629215697E-17  0.7245802548E-01
  0.1429536967E+00  0.1000000000E+01  0.4698893521E-01 -0.8631958586E-01  0.1991063125E-18 -0.1437139626E-01  0.1265200552E+16 -0.7235117190E-01  0.2986232174E-18  0.8135570782E-01
  0.4698893521E-01  0.1000000000E+01  0.4698893521E-01 -0.6409653361E-01  0.4072720488E-19  0.3579353570E-01  0.1265200552E+16 -0.5510173707E-01  0.2176743691E-19  0.6272321557E-01
  0.0000000000E+00  0.1000000000E+01  0.4698893521E-01 -0.2114101760E-01  0.2163107125E-20  0.2724148540E-01  0.1265200552E+16 -0.2057554645E-01  0.1994887110E-20  0.1369915972E-01
  0.4000000000E+00  0.1000000000E+01  0.1429536967E+00  0.4778029064E+00  0.8299281822E-17 -0.3732422836E+00  0.1265200552E+16  0.5064980917E+00  0.8783801965E-17 -0.7165976005E-01
  0.3530110648E+00  0.1000000000E+01  0.1429536967E+00  0.2059693857E+00  0.8520900672E-17 -0.3832342810E+00  0.1265200552E+16  0.2733422204E+00  0.6610564695E-17 -0.1050663931E+00
  0.2570463033E+00  0.1000000000E+01  0.1429536967E+00  0.9067132165E-01  0.3114679221E-17 -0.2467058774E+00  0.1265200552E+16  0.1624249746E+00  0.3270691218E-17 -0.3164635535E-01
  0.1429536967E+00  0.1000000000E+01  0.1429536967E+00 -0.1291805149E+00  0.1336386632E-17 -0.1457395680E+00  0.1265200552E+16 -0.2961264164E-01  0.1412881342E-17 -0.1742356011E-01
  0.4698893521E-01  0.1000000000E+01  0.1429536967E+00 -0.1124986183E+00  0.1608474704E-18  0.3986575857E-01  0.1265200552E+16 -0.2195548597E-01  0.1331985767E-19  0.6710732553E-01
  0.0000000000E+00  0.1000000000E+01  0.1429536967E+00 -0.2024738288E-01  0.5756828305E-20  0.2666486469E-01  0.1265200552E+16 -0.2012340057E-01  0.4814076600E-20  0.8899663204E-02
  0.4000000000E+00  0.1000000000E+01  0.2570463033E+00  0.5955771005E+00  0.5154263018E-17 -0.6878758400E+00  0.1265200552E+16  0.6216197155E+00  0.5190129803E-17 -0.4692007601E+00
  0.3530110648E+00  0.1000000000E+01  0.2570463033E+00  0.3888728124E+00  0.2082543478E-17 -0.6696771511E+00  0.1265200552E+16  0.4954559702E+00  0.5266453662E-17 -0.4478832476E+00
  0.2570463033E+00  0.1000000000E+01  0.2570463033E+00  0.1331163787E+00  0.3076131898E-17 -0.4558603398E+00  0.1265200552E+16  0.2689898464E+00  0.3027255677E-17 -0.2655234172E+00
  0.1429536967E+00  0.1000000000E+01  0.2570463033E+00 -0.1579414253E+00  0.2103452914E-17 -0.3237034002E+00  0.1265200552E+16  0.5131506843E-01  0.2060887336E-17 -0.2230714347E+00
  0.4698893521E-01  0.1000000000E+01  0.2570463033E+00 -0.1545458082E+00  0.1787149020E-17 -0.1105971514E-01  0.1265200552E+16  0.3072717429E-01  0.1850639579E-17 -0.5514790907E-02
  0.0000000000E+00  0.1000000000E+01  0.2570463033E+00 -0.1371321266E-01 -0.1168805999E-19  0.1745441742E-01  0.1265200552E+16 -0.1350004850E-01 -0.8368894208E-20  0.1596555991E-03
  0.4000000000E+00  0.1000000000E+01  0.3530110648E+00  0.5298630123E+00  0.5411011058E-17 -0.1068321073E+01  0.1265200552E+16  0.5587430203E+00  0.5322475513E-17 -0.7299176155E+00
  0.3530110648E+00  0.1000000000E+01  0.3530110648E+00  0.3950965653E+00  0.4517705398E-17 -0.9837017955E+00  0.1265200552E+16  0.5245021973E+00  0.4608734891E-17 -0.6769935106E+00
  0.2570463033E+00  0.1000000000E+01  0.3530110648E+00  0.1334703446E+00  0.3660723403E-17 -0.7115089061E+00  0.1265200552E+16  0.3348571363E+00  0.3134066936E-18 -0.4785493876E+00
  0.1429536967E+00  0.1000000000E+01  0.3530110648E+00 -0.2127680106E+00  0.2295905956E-17 -0.4807470646E+00  0.1265200552E+16  0.1063927167E+00  0.1419371535E-17 -0.3760073550E+00
  0.4698893521E-01  0.1000000000E+01  0.3530110648E+00 -0.1840122446E+00  0.2568078703E-18 -0.7631027627E-01  0.1265200552E+16  0.7814331017E-01  0.3526380541E-18 -0.8597492780E-01
  0.0000000000E+00  0.1000000000E+01  0.3530110648E+00 -0.1327294429E-01  0.2660350222E-20  0.1231960473E-01  0.1265200552E+16 -0.1312442715E-01  0.8440342416E-20 -0.8090775670E-02
  0.4000000000E+00  0.1000000000E+01  0.4000000000E+00  0.4964761460E+00  0.6229875675E-17 -0.1258604637E+01  0.1265200552E+16  0.5932947308E+00  0.6113990892E-17 -0.7765503583E+00
  0.3530110648E+00  0.1000000000E+01  0.4000000000E+00  0.4247096635E+00  0.6223417502E-17 -0.1200597922E+01  0.1265200552E+16  0.6101298407E+00  0.5320139950E-17 -0.8174239008E+00
  0.2570463033E+00  0.1000000000E+01  0.4000000000E+00  0.1233406786E+00  0.1189324558E-17 -0.8920799932E+00  0.1265200552E+16  0.3746511849E+00  0.2413481818E-17 -0.6475205265E+00
  0.1429536967E+00  0.1000000000E+01  0.4000000000E+00 -0.2333197656E+00  0.1996565860E-17 -0.5954570093E+00  0.1265200552E+16  0.1485860094E+00  0.2889009969E-17 -0.4947659812E+00
  0.4698893521E-01  0.1000000000E+01  0.4000000000E+00 -0.2040146885E+00  0.4575907226E-18 -0.1283906006E+00  0.1265200552E+16  0.1007663926E+00  0.5511669613E-18 -0.1474998917E+00
  0.0000000000E+00  0.1000000000E+01  0.4000000000E+00 -0.5782176543E-02  0.1394572497E-19  0.2753621575E-02  0.1265200552E+16 -0.5527606709E-02  0.1110531951E-19 -0.1600322524E-01
ZONE I=6, J=6, K=1, F=POINT
  0.8000000000E+00  0.1000000000E+01  0.0000000000E+00 -0.8290009225E-01 -0.1051124695E-18 -0.1006458962E-01  0.1265200552E+16 -0.4277821501E-01 -0.1450313456E-18 -0.9073001017E-02
  0.7530110648E+00  0.1000000000E+01  0.0000000000E+00 -0.9360819050E-01 -0.2081842153E-17  0.7662079170E-02  0.1265200552E+16 -0.5279088307E-01 -0.1257356103E-17  0.7833595546E-02
  0.6570463033E+00  0.1000000000E+01  0.0000000000E+00 -0.8499237110E-01 -0.1085356529E-17  0.2706160562E-02  0.1265200552E+16 -0.4526156284E-01 -0.5448347720E-18  0.2405738342E-02
  0.5429536967E+00  0.1000000000E+01  0.0000000000E+00 -0.6774767714E-01 -0.1768009717E-17  0.9976959780E-02  0.1265200552E+16 -0.3460254162E-01 -0.8889113617E-18  0.9283191881E-02
  0.4469889352E+00  0.1000000000E+01  0.0000000000E+00 -0.5719960493E-01 -0.1733046989E-17  0.2951610178E-02  0.1265200552E+16 -0.3033496983E-01 -0.9151841559E-18  0.2663832225E-02
  0.4000000000E+00  0.1000000000E+01  0.0000000000E+00 -0.3535709954E-01  0.1327957208E-19  0.7458191159E-02  0.1265200552E+16 -0.9611868427E-02  0.9734512969E-20  0.7859356395E-02
  0.8000000000E+00  0.1000000000E+01  0.4698893521E-01  0.2788246785E+00 -0.2071024591E-16 -0.2437939818E+00  0.1265200552E+16  0.1981879850E+00 -0.1963235718E-16  0.3493851087E-01
  0.7530110648E+00  0.1000000000E+01  0.4698893521E-01  0.4657070188E+00 -0.1215540000E-16 -0.3049032817E+00  0.1265200552E+16  0.4038181394E+00 -0.9070790480E-17 -0.2004647459E-01
  0.6570463033E+00  0.1000000000E+01  0.4698893521E-01  0.2315807428E+00 -0.5940460490E-17 -0.2858287791E+00  0.1265200552E+16  0.1901683111E+00 -0.5991262459E-17 -0.7823227006E-02
  0.5429536967E+00  0.1000000000E+01  0.4698893521E-01  0.2425780778E+00  0.2408069722E-17 -0.2680494409E+00  0.1265200552E+16  0.2114259320E+00  0.2045188717E-17  0.1375956781E-03
  0.4469889352E+00  0.1000000000E+01  0.4698893521E-01  0.1000756474E+00  0.5432335289E-17 -0.2000668363E+00  0.1265200552E+16  0.8047313747E-01  0.5329131177E-17  0.5257163160E-01
  0.4000000000E+00  0.1000000000E+01  0.4698893521E-01  0.2047670211E+00  0.3934085304E-17 -0.2025585416E+00  0.1265200552E+16  0.1954524548E+00  0.3989733752E-17  0.3446097657E-01
  0.8000000000E+00  0.1000000000E+01  0.1429536967E+00  0.1271536580E+01 -0.5535693934E-16 -0.7419009702E+00  0.1265200552E+16  0.1149796650E+01 -0.5847028559E-16 -0.4591943412E+00
  0.7530110648E+00  0.1000000000E+01  0.1429536967E+00  0.1520563747E+01 -0.2766941747E-16 -0.5977376470E+00  0.1265200552E+16  0.1442238183E+01 -0.2911634565E-16 -0.2984019866E+00
  0.6570463033E+00  0.1000000000E+01  0.1429536967E+00  0.9920638574E+00  0.5257155975E-17 -0.5621865928E+00  0.1265200552E+16  0.9538196641E+00  0.6960148427E-17 -0.2528476942E+00
  0.5429536967E+00  0.1000000000E+01  0.1429536967E+00  0.8226710177E+00  0.6148178675E-17 -0.3637152753E+00  0.1265200552E+16  0.7968241528E+00  0.5615563355E-17 -0.5871758282E-01
  0.4469889352E+00  0.1000000000E+01  0.1429536967E+00  0.4393857876E+00  0.1338095143E-16 -0.4142423627E+00  0.1265200552E+16  0.4393454691E+00  0.1185462064E-16 -0.1070652362E+00
  0.4000000000E+00  0.1000000000E+01  0.1429536967E+00  0.5298783997E+00  0.8991003833E-17 -0.3727827402E+00  0.1265200552E+16  0.5586987245E+00  0.9449460002E-17 -0.7115713099E-01
  0.8000000000E+00  0.1000000000E+01  0.2570463033E+00  0.2588340895E+01 -0.9784761879E-17 -0.1417149775E+01  0.1265200552E+16  0.2429577479E+01 -0.1030681642E-16 -0.1179453273E+01
  0.7530110648E+00  0.1000000000E+01  0.2570463033E+00  0.2363910152E+01 -0.9258866323E-17 -0.1161117431E+01  0.1265200552E+16  0.2268566353E+01 -0.5338411794E-17 -0.9187220704E+00
  0.6570463033E+00  0.1000000000E+01  0.2570463033E+00  0.1739455719E+01  0.4194238373E-17 -0.1113464085E+01  0.1265200552E+16  0.1723882032E+01  0.4550794387E-17 -0.8964227939E+00
  0.5429536967E+00  0.1000000000E+01  0.2570463033E+00  0.1214965874E+01  0.1556102511E-17 -0.8516351733E+00  0.1265200552E+16  0.1188159413E+01  0.1093199657E-17 -0.6674595085E+00
  0.4469889352E+00  0.1000000000E+01  0.2570463033E+00  0.7299120027E+00  0.2416018022E-17 -0.8232777649E+00  0.1265200552E+16  0.6981633833E+00  0.5073216742E-17 -0.6203459996E+00
  0.4000000000E+00  0.1000000000E+01  0.2570463033E+00  0.6258890344E+00  0.5154218193E-17 -0.6872505961E+00  0.1265200552E+16  0.6524181548E+00  0.5185224399E-17 -0.4686005096E+00
  0.8000000000E+00  0.1000000000E+01  0.3530110648E+00  0.3046064460E+01  0.2415626588E-17 -0.2136807171E+01  0.1265200552E+16  0.2846528534E+01  0.2352177880E-17 -0.1698892261E+01
  0.7530110648E+00  0.1000000000E+01  0.3530110648E+00  0.2827172651E+01 -0.2932643992E-17 -0.1907172246E+01  0.1265200552E+16  0.2733948173E+01 -0.7828932913E-17 -0.1446203592E+01
  0.6570463033E+00  0.1000000000E+01  0.3530110648E+00  0.2240850686E+01  0.8161738141E-17 -0.1816282150E+01  0.1265200552E+16  0.2238563702E+01  0.9802554758E-18 -0.1311555945E+01
  0.5429536967E+00  0.1000000000E+01  0.3530110648E+00  0.1408936811E+01  0.2090605074E-16 -0.1626072380E+01  0.1265200552E+16  0.1406963127E+01  0.1629308691E-16 -0.1092839920E+01
  0.4469889352E+00  0.1000000000E+01  0.3530110648E+00  0.5617831288E+00  0.6595814499E-17 -0.1317049925E+01  0.1265200552E+16  0.5661370318E+00  0.2987813742E-17 -0.9118163901E+00
  0.4000000000E+00  0.1000000000E+01  0.3530110648E+00  0.5654673770E+00  0.5411007795E-17 -0.1068587450E+01  0.1265200552E+16  0.5946840504E+00  0.5369367267E-17 -0.7300358556E+00
  0.8000000000E+00  0.1000000000E+01  0.4000000000E+00  0.3260178904E+01 -0.7224233488E-17 -0.2487859837E+01  0.1265200552E+16  0.2997839946E+01 -0.7164141786E-17 -0.1974698520E+01
  0.7530110648E+00  0.1000000000E+01  0.4000000000E+00  0.2867117244E+01 -0.3014148415E-17 -0.2193238167E+01  0.1265200552E+16  0.2734737197E+01 -0.5880185735E-17 -0.1606778577E+01
  0.6570463033E+00  0.1000000000E+01  0.4000000000E+00  0.2440260576E+01 -0.2979963204E-17 -0.2052156561E+01  0.1265200552E+16  0.2361664154E+01  0.4014571694E-18 -0.1242268905E+01
  0.5429536967E+00  0.1000000000E+01  0.4000000000E+00  0.1421819987E+01 -0.4589999079E-17 -0.1897007443E+01  0.1265200552E+16  0.1453161171E+01  0.5372303646E-17 -0.9118658055E+00
  0.4469889352E+00  0.1000000000E+01  0.4000000000E+00  0.4402477835E+00 -0.8257027931E-17 -0.1507650410E+01  0.1265200552E+16  0.5930143626E+00 -0.8505512002E-17 -0.8385414377E+00
  0.4000000000E+00  0.1000000000E+01  0.4000000000E+00  0.5109970189E+00  0.6300578227E-17 -0.1258761881E+01  0.1265200552E+16  0.6079349832E+00  0.6220298418E-17 -0.7764964711E+00
ZONE I=6, J=6, K=1, F=POINT
  0.1200000000E+01  0.1000000000E+01  0.0000000000E+00 -0.1507931179E+00  0.4343111124E-19  0.3622191512E-01  0.1265200552E+16 -0.1292319494E+00  0.1025010808E-19  0.3714260271E-01
  0.1153011065E+01  0.1000000000E+01  0.0000000000E+00 -0.1245177005E+00 -0.5635326383E-17 -0.9594286391E-02  0.1265200552E+16 -0.9964094343E-01 -0.4803597498E-17 -0.8799170189E-02
  0.1057046303E+01  0.1000000000E+01  0.0000000000E+00 -0.1152064037E+00 -0.3016989245E-17  0.6392715731E-02  0.1265200552E+16 -0.8463813684E-01 -0.2215824024E-17  0.7045220797E-02
  0.9429536967E+00  0.1000000000E+01  0.0000000000E+00 -0.1143152275E+00 -0.2976572854E-19 -0.7702208024E-02  0.1265200552E+16 -0.7820078105E-01 -0.1016856243E-18 -0.7125759645E-02
  0.8469889352E+00  0.1000000000E+01  0.0000000000E+00 -0.1019992722E+00 -0.1839064347E-19  0.6703642436E-02  0.1265200552E+16 -0.6243507957E-01 -0.4177071472E-19  0.7055318343E-02
  0.8000000000E+00  0.1000000000E+01  0.0000000000E+00 -0.1280184451E+00 -0.1210409520E-18 -0.9520717261E-02  0.1265200552E+16 -0.8766081274E-01 -0.1620294664E-18 -0.8549386195E-02
  0.1200000000E+01  0.1000000000E+01  0.4698893521E-01  0.2255297542E+01 -0.3576865960E-16 -0.3836995915E+00  0.1265200552E+16  0.2082295623E+01 -0.2825942342E-16 -0.3777403920E+00
  0.1153011065E+01  0.1000000000E+01  0.4698893521E-01  0.1556544692E+01 -0.2100683516E-16 -0.2460390634E+00  0.1265200552E+16  0.1381303944E+01 -0.1567129531E-16 -0.2087312993E+00
  0.1057046303E+01  0.1000000000E+01  0.4698893521E-01  0.1394971907E+01 -0.1383861655E-16 -0.3052449461E+00  0.1265200552E+16  0.1241731069E+01 -0.1547284119E-16 -0.1911547204E+00
  0.9429536967E+00  0.1000000000E+01  0.4698893521E-01  0.7497363096E+00 -0.9168612644E-17 -0.3139835720E+00  0.1265200552E+16  0.6244614009E+00 -0.5634661998E-17 -0.1235123822E+00
  0.8469889352E+00  0.1000000000E+01  0.4698893521E-01  0.6228644495E+00 -0.1883420873E-16 -0.3255255331E+00  0.1265200552E+16  0.5202518879E+00 -0.1453265909E-16 -0.6978298970E-01
  0.8000000000E+00  0.1000000000E+01  0.4698893521E-01  0.2176994917E+00 -0.1998409067E-16 -0.2416133973E+00  0.1265200552E+16  0.1369855342E+00 -0.1886764582E-16  0.3699188019E-01
  0.1200000000E+01  0.1000000000E+01  0.1429536967E+00  0.5555585503E+01 -0.5750904186E-16 -0.8875736130E+00  0.1265200552E+16  0.5326720991E+01 -0.5144987444E-16 -0.9153834435E+00
  0.1153011065E+01  0.1000000000E+01  0.1429536967E+00  0.4097185377E+01 -0.7478245040E-16 -0.1112270715E+01  0.1265200552E+16  0.3835362177E+01 -0.8935720045E-16 -0.1105067792E+01
  0.1057046303E+01  0.1000000000E+01  0.1429536967E+00  0.3666389312E+01 -0.3661745913E-16 -0.9355086557E+00  0.1265200552E+16  0.3424949847E+01 -0.3606473495E-16 -0.8422843506E+00
  0.9429536967E+00  0.1000000000E+01  0.1429536967E+00  0.2312320994E+01 -0.3189441630E-16 -0.1090580498E+01  0.1265200552E+16  0.2108764688E+01 -0.3161951169E-16 -0.8978880750E+00
  0.8469889352E+00  0.1000000000E+01  0.1429536967E+00  0.1944313339E+01 -0.4198876945E-16 -0.7559335960E+00  0.1265200552E+16  0.1774920004E+01 -0.3947000470E-16 -0.4972868065E+00
  0.8000000000E+00  0.1000000000E+01  0.1429536967E+00  0.1186868341E+01 -0.5763027555E-16 -0.7434252756E+00  0.1265200552E+16  0.1067558827E+01 -0.6084892221E-16 -0.4608075517E+00
  0.1200000000E+01  0.1000000000E+01  0.2570463033E+00  0.6281885966E+01 -0.1623386678E-16 -0.2013949981E+01  0.1265200552E+16  0.5981401129E+01 -0.1601123954E-16 -0.2035578565E+01
  0.1153011065E+01  0.1000000000E+01  0.2570463033E+00  0.5728906455E+01 -0.3364654300E-16 -0.2304021735E+01  0.1265200552E+16  0.5385880064E+01  0.2704184563E-17 -0.2296355003E+01
  0.1057046303E+01  0.1000000000E+01  0.2570463033E+00  0.4827970317E+01 -0.3289393434E-16 -0.1974435463E+01  0.1265200552E+16  0.4488499954E+01 -0.3341225791E-16 -0.1888098977E+01
  0.9429536967E+00  0.1000000000E+01  0.2570463033E+00  0.3724412570E+01 -0.2222990016E-16 -0.2069197173E+01  0.1265200552E+16  0.3443068605E+01 -0.7313149739E-17 -0.1891030358E+01
  0.8469889352E+00  0.1000000000E+01  0.2570463033E+00  0.3028362363E+01 -0.1965046868E-16 -0.1477723548E+01  0.1265200552E+16  0.2815579128E+01 -0.2358564488E-16 -0.1253077256E+01
  0.8000000000E+00  0.1000000000E+01  0.2570463033E+00  0.2550146186E+01 -0.9973418927E-17 -0.1419853948E+01  0.1265200552E+16  0.2391650597E+01 -0.1025504171E-16 -0.1181666179E+01
  0.1200000000E+01  0.1000000000E+01  0.3530110648E+00  0.6923804569E+01  0.1410608497E-16 -0.3209576866E+01  0.1265200552E+16  0.6564944705E+01  0.1437425948E-16 -0.3200012557E+01
  0.1153011065E+01  0.1000000000E+01  0.3530110648E+00  0.6184095653E+01  0.2411094983E-19 -0.3210661508E+01  0.1265200552E+16  0.5759440264E+01  0.5629801883E-17 -0.3161939416E+01
  0.1057046303E+01  0.1000000000E+01  0.3530110648E+00  0.5344544052E+01 -0.1234369984E-16 -0.2960035908E+01  0.1265200552E+16  0.4909249922E+01 -0.1396049798E-16 -0.2810366970E+01
  0.9429536967E+00  0.1000000000E+01  0.3530110648E+00  0.4254651091E+01 -0.1300271902E-16 -0.2831413889E+01  0.1265200552E+16  0.3890143131E+01 -0.3344768174E-17 -0.2551038158E+01
  0.8469889352E+00  0.1000000000E+01  0.3530110648E+00  0.3623758667E+01 -0.1663595340E-17 -0.2294934786E+01  0.1265200552E+16  0.3352117238E+01 -0.1277591719E-16 -0.1903511615E+01
  0.8000000000E+00  0.1000000000E+01  0.3530110648E+00  0.2998338617E+01  0.2390274753E-17 -0.2137197602E+01  0.1265200552E+16  0.2799980418E+01  0.2477386155E-17 -0.1699283036E+01
  0.1200000000E+01  0.1000000000E+01  0.4000000000E+00  0.6792135200E+01  0.1369586512E-16 -0.3510711348E+01  0.1265200552E+16  0.6396906512E+01  0.1398764646E-16 -0.3514943547E+01
  0.1153011065E+01  0.1000000000E+01  0.4000000000E+00  0.6418048285E+01  0.1036528390E-16 -0.3705448058E+01  0.1265200552E+16  0.5952627288E+01  0.1437650677E-17 -0.3677013345E+01
  0.1057046303E+01  0.1000000000E+01  0.4000000000E+00  0.5426737833E+01 -0.1057884985E-16 -0.3364460046E+01  0.1265200552E+16  0.4939942572E+01 -0.1564542110E-16 -0.3256959485E+01
  0.9429536967E+00  0.1000000000E+01  0.4000000000E+00  0.4448702485E+01 -0.2087360082E-16 -0.3255528721E+01  0.1265200552E+16  0.4019172018E+01 -0.1120349731E-16 -0.2997347107E+01
  0.8469889352E+00  0.1000000000E+01  0.4000000000E+00  0.3700218545E+01 -0.1355343962E-16 -0.2614992852E+01  0.1265200552E+16  0.3360605279E+01 -0.1716948739E-16 -0.2191101658E+01
  0.8000000000E+00  0.1000000000E+01  0.4000000000E+00  0.3255139079E+01 -0.7220788341E-17 -0.2491913956E+01  0.1265200552E+16  0.2992980941E+01 -0.7094647371E-17 -0.1978177871E+01
ZONE I=6, J=6, K=1, F=POINT
  0.1600000000E+01  0.1000000000E+01  0.0000000000E+00  0.1658950415E-01 -0.9334784993E-18 -0.6985397908E-01  0.1265200552E+16  0.1535490655E-02 -0.1168489025E-17 -0.6627321176E-01
  0.1553011065E+01  0.1000000000E+01  0.0000000000E+00 -0.1041298300E+00  0.4139221063E-17  0.4518739804E-01  0.1265200552E+16 -0.1155588198E+00  0.4819451750E-17  0.4580326807E-01
  0.1457046303E+01  0.1000000000E+01  0.0000000000E+00 -0.1225961058E+00  0.2626653194E-17 -0.3409946869E-02  0.1265200552E+16 -0.1245505719E+00  0.2566427168E-17 -0.2164217073E-02
  0.1342953697E+01  0.1000000000E+01  0.0000000000E+00 -0.1117838863E+00 -0.6075240394E-17  0.2957945037E-01  0.1265200552E+16 -0.1026235441E+00 -0.5598140033E-17  0.3056072012E-01
  0.1246988935E+01  0.1000000000E+01  0.0000000000E+00 -0.1260646799E+00 -0.4815943920E-18 -0.8503773319E-02  0.1265200552E+16 -0.1086919655E+00 -0.1458330135E-18 -0.7427935575E-02
  0.1200000000E+01  0.1000000000E+01  0.0000000000E+00 -0.6080817389E-01  0.2385228144E-19  0.3621894626E-01  0.1265200552E+16 -0.3951408609E-01 -0.1510228598E-19  0.3713686954E-01
  0.1600000000E+01  0.1000000000E+01  0.4698893521E-01  0.2890780778E+01 -0.8693989247E-16  0.7819461144E-02  0.1265200552E+16  0.2641224444E+01 -0.8129969034E-16  0.1343192826E+00
  0.1553011065E+01  0.1000000000E+01  0.4698893521E-01  0.3433429816E+01 -0.4830673365E-16 -0.4896574783E+00  0.1265200552E+16  0.3216033251E+01 -0.5491679867E-16 -0.3911706572E+00
  0.1457046303E+01  0.1000000000E+01  0.4698893521E-01  0.2523332142E+01 -0.2955651450E-17 -0.2951234576E+00  0.1265200552E+16  0.2315322582E+01  0.3312107604E-17 -0.2733458750E+00
  0.1342953697E+01  0.1000000000E+01  0.4698893521E-01  0.2564429415E+01  0.2553384879E-16 -0.2545292230E+00  0.1265200552E+16  0.2371310267E+01  0.2382732911E-16 -0.2439037777E+00
  0.1246988935E+01  0.1000000000E+01  0.4698893521E-01  0.1989121860E+01 -0.1503379465E-16 -0.2117743259E+00  0.1265200552E+16  0.1821346115E+01 -0.2193456156E-16 -0.2105854698E+00
  0.1200000000E+01  0.1000000000E+01  0.4698893521E-01  0.2354914223E+01 -0.3999229575E-16 -0.3895143639E+00  0.1265200552E+16  0.2179608501E+01 -0.3237449653E-16 -0.3830299312E+00
  0.1600000000E+01  0.1000000000E+01  0.1429536967E+00  0.6406808986E+01 -0.2810524775E-15 -0.1897755321E+01  0.1265200552E+16  0.6111914916E+01 -0.2958849150E-15 -0.2011717565E+01
  0.1553011065E+01  0.1000000000E+01  0.1429536967E+00  0.8175476307E+01 -0.1444920035E-15 -0.1066971765E+01  0.1265200552E+16  0.8002694864E+01 -0.1385310477E-15 -0.1164220126E+01
  0.1457046303E+01  0.1000000000E+01  0.1429536967E+00  0.6258943859E+01  0.1418877355E-16 -0.1068121201E+01  0.1265200552E+16  0.6073944624E+01  0.2459247183E-17 -0.1152375982E+01
  0.1342953697E+01  0.1000000000E+01  0.1429536967E+00  0.6325246029E+01  0.8754365150E-16 -0.4008675338E+00  0.1265200552E+16  0.6122844634E+01  0.8015266758E-16 -0.4703324242E+00
  0.1246988935E+01  0.1000000000E+01  0.1429536967E+00  0.4997153470E+01  0.3461618150E-16 -0.1000318459E+01  0.1265200552E+16  0.4822525366E+01  0.4799693495E-16 -0.1049459465E+01
  0.1200000000E+01  0.1000000000E+01  0.1429536967E+00  0.5723131459E+01 -0.6169647848E-16 -0.8820655949E+00  0.1265200552E+16  0.5482571317E+01 -0.5576388974E-16 -0.9105867333E+00
  0.1600000000E+01  0.1000000000E+01  0.2570463033E+00  0.1167607699E+02  0.8792410744E-16 -0.3399652590E+01  0.1265200552E+16  0.1134341116E+02  0.8682481086E-16 -0.3642022227E+01
  0.1553011065E+01  0.1000000000E+01  0.2570463033E+00  0.1068369338E+02  0.1069501349E-15 -0.2334123718E+01  0.1265200552E+16  0.1042446856E+02  0.1034369912E-15 -0.2535297604E+01
  0.1457046303E+01  0.1000000000E+01  0.2570463033E+00  0.9452898545E+01  0.1577744638E-15 -0.2300340924E+01  0.1265200552E+16  0.9220793237E+01  0.1444323100E-15 -0.2427358876E+01
  0.1342953697E+01  0.1000000000E+01  0.2570463033E+00  0.7941498985E+01  0.1065043151E-15 -0.1328556798E+01  0.1265200552E+16  0.7717747467E+01  0.9383382367E-16 -0.1421961715E+01
  0.1246988935E+01  0.1000000000E+01  0.2570463033E+00  0.6751015735E+01  0.1990539346E-16 -0.2200841695E+01  0.1265200552E+16  0.6516107767E+01  0.7659055826E-17 -0.2251762498E+01
  0.1200000000E+01  0.1000000000E+01  0.2570463033E+00  0.6323763768E+01 -0.1650300669E-16 -0.2003775996E+01  0.1265200552E+16  0.6022119940E+01 -0.1584571268E-16 -0.2028557402E+01
  0.1600000000E+01  0.1000000000E+01  0.3530110648E+00  0.1045836753E+02  0.1866792997E-15 -0.3725301218E+01  0.1265200552E+16  0.1007122441E+02  0.1876010710E-15 -0.3860348337E+01
  0.1553011065E+01  0.1000000000E+01  0.3530110648E+00  0.1074146911E+02  0.1852763661E-15 -0.3672631214E+01  0.1265200552E+16  0.1043150459E+02  0.1831319392E-15 -0.3794620278E+01
  0.1457046303E+01  0.1000000000E+01  0.3530110648E+00  0.9651605083E+01  0.1641440579E-15 -0.3392010771E+01  0.1265200552E+16  0.9387795579E+01  0.1496944115E-15 -0.3504606691E+01
  0.1342953697E+01  0.1000000000E+01  0.3530110648E+00  0.8468238398E+01  0.1180101888E-15 -0.2838390838E+01  0.1265200552E+16  0.8211935420E+01  0.1106660259E-15 -0.2912554727E+01
  0.1246988935E+01  0.1000000000E+01  0.3530110648E+00  0.7116171136E+01  0.4833262845E-16 -0.3203310560E+01  0.1265200552E+16  0.6824724741E+01  0.5741825107E-16 -0.3223919203E+01
  0.1200000000E+01  0.1000000000E+01  0.3530110648E+00  0.7003022912E+01  0.1417938055E-16 -0.3209707627E+01  0.1265200552E+16  0.6639321547E+01  0.1444140184E-16 -0.3199961972E+01
  0.1600000000E+01  0.1000000000E+01  0.4000000000E+00  0.1076624211E+02  0.1843201182E-15 -0.4334428045E+01  0.1265200552E+16  0.1035303547E+02  0.1845285978E-15 -0.4591186685E+01
  0.1553011065E+01  0.1000000000E+01  0.4000000000E+00  0.1019055060E+02  0.1914578139E-15 -0.3599780136E+01  0.1265200552E+16  0.9873328756E+01  0.1990482944E-15 -0.3823690186E+01
  0.1457046303E+01  0.1000000000E+01  0.4000000000E+00  0.9683080030E+01  0.1541285562E-15 -0.3825536429E+01  0.1265200552E+16  0.9408596355E+01  0.1554637176E-15 -0.4018548278E+01
  0.1342953697E+01  0.1000000000E+01  0.4000000000E+00  0.8358502453E+01  0.1080513586E-15 -0.3183500014E+01  0.1265200552E+16  0.8074459383E+01  0.9206456289E-16 -0.3313677675E+01
  0.1246988935E+01  0.1000000000E+01  0.4000000000E+00  0.7369823642E+01  0.3973847676E-16 -0.3748053454E+01  0.1265200552E+16  0.7043044506E+01  0.4206983635E-16 -0.3791647770E+01
  0.1200000000E+01  0.1000000000E+01  0.4000000000E+00  0.6764153046E+01  0.1391193920E-16 -0.3497896877E+01  0.1265200552E+16  0.6371107335E+01  0.1408081198E-16 -0.3505296456E+01
ZONE I=6, J=6, K=1, F=POINT
  0.2000000000E+01  0.1000000000E+01  0.0000000000E+00  0.2394573467E+01  0.4965334358E-19  0.2122927433E+02  0.1265200552E+16  0.2412544018E+01  0.5657692088E-19  0.2213840657E+02
  0.1953011065E+01  0.1000000000E+01  0.0000000000E+00  0.1199532466E+01 -0.3504749927E-16 -0.1430333609E+00  0.1265200552E+16  0.1153641926E+01 -0.3295707105E-16 -0.1691523734E+00
  0.1857046303E+01  0.1000000000E+01  0.0000000000E+00 -0.4251848665E+00 -0.2558363386E-16  0.1515612659E+00  0.1265200552E+16 -0.4745757679E+00 -0.2864989283E-16  0.1550325214E+00
  0.1742953697E+01  0.1000000000E+01  0.0000000000E+00  0.1980870577E-01 -0.1078947006E-18 -0.3846486159E-01  0.1265200552E+16 -0.9882414145E-02 -0.4003831063E-18 -0.3836328054E-01
  0.1646988935E+01  0.1000000000E+01  0.0000000000E+00 -0.2574337633E+00  0.7299010108E-18  0.6071113197E-01  0.1265200552E+16 -0.2815933166E+00  0.6538654626E-18  0.6169908976E-01
  0.1600000000E+01  0.1000000000E+01  0.0000000000E+00 -0.2332653991E-01 -0.1001732700E-17 -0.8179710000E-01  0.1265200552E+16 -0.3717428116E-01 -0.1226715310E-17 -0.7684723284E-01
  0.2000000000E+01  0.1000000000E+01  0.4698893521E-01 -0.1847709421E-01  0.7738057639E-18  0.4838729648E+02  0.1265200552E+16 -0.7499626820E-01  0.6239677277E-18  0.4851306970E+02
  0.1953011065E+01  0.1000000000E+01  0.4698893521E-01  0.1096149244E+02  0.1345192216E-15  0.1452333322E+01  0.1265200552E+16  0.1060336278E+02  0.1300307029E-15  0.1145555179E+01
  0.1857046303E+01  0.1000000000E+01  0.4698893521E-01  0.1157238940E+02  0.2828443789E-15 -0.1965775521E+01  0.1265200552E+16  0.1117715110E+02  0.2551311551E-15 -0.2204007610E+01
  0.1742953697E+01  0.1000000000E+01  0.4698893521E-01  0.5621134427E+01 -0.4646359273E-16 -0.8237952863E+00  0.1265200552E+16  0.5278820482E+01 -0.4492036403E-16 -0.9150720474E+00
  0.1646988935E+01  0.1000000000E+01  0.4698893521E-01  0.4336187116E+01 -0.1190079386E-15 -0.8519450697E+00  0.1265200552E+16  0.3969174616E+01 -0.1000271452E-15 -0.7693083173E+00
  0.1600000000E+01  0.1000000000E+01  0.4698893521E-01  0.2725306814E+01 -0.8408228290E-16 -0.5874944009E-02  0.1265200552E+16  0.2487070004E+01 -0.7842289475E-16  0.1149236746E+00
  0.2000000000E+01  0.1000000000E+01  0.1429536967E+00 -0.2834848043E+00  0.2574516653E-17  0.5037414132E+02  0.1265200552E+16 -0.2540887190E+00  0.3109853932E-17  0.5026603675E+02
  0.1953011065E+01  0.1000000000E+01  0.1429536967E+00  0.2778893157E+01 -0.5108201528E-15  0.1627860922E+02  0.1265200552E+16  0.2396876599E+01 -0.5441060509E-15  0.1593871395E+02
  0.1857046303E+01  0.1000000000E+01  0.1429536967E+00  0.1271302058E+02 -0.2749399465E-15 -0.3778000940E+01  0.1265200552E+16  0.1221253879E+02 -0.2453166398E-15 -0.4107322051E+01
  0.1742953697E+01  0.1000000000E+01  0.1429536967E+00  0.9967730964E+01 -0.4001020942E-16 -0.4208912478E+01  0.1265200552E+16  0.9470809721E+01 -0.8901992333E-16 -0.4433541117E+01
  0.1646988935E+01  0.1000000000E+01  0.1429536967E+00  0.9326036903E+01 -0.1698486882E-15 -0.2167982734E+01  0.1265200552E+16  0.8835536870E+01 -0.1716876187E-15 -0.2306603287E+01
  0.1600000000E+01  0.1000000000E+01  0.1429536967E+00  0.6031262376E+01 -0.2974971444E-15 -0.1897741803E+01  0.1265200552E+16  0.5778930553E+01 -0.3130668878E-15 -0.2016438292E+01
  0.2000000000E+01  0.1000000000E+01  0.2570463033E+00  0.1609350087E-01  0.1115674046E-17  0.4973930177E+02  0.1265200552E+16  0.1573126682E-01  0.1013657892E-17  0.4972236072E+02