TITLE = "Generated from ../MESH/Convergence_0000000000.hmesh and Convergence_0000004600.hsol"
VARIABLES = "x","y","z","veloT_x","veloT_y","veloT_z","slr_4","velo_x","velo_y","velo_z"
ZONE I=6, J=6, K=1, F=POINT
  0.4000000000E+00  0.1000000000E+01  0.0000000000E+00 -0.1231155811E-01  0.2740504381E-19  0.7540691358E-02  0.6659918473E+15 -0.1084807766E-01  0.2813489663E-19  0.7525589968E-02
  0.3530110648E+00  0.1000000000E+01  0.0000000000E+00 -0.1895114873E-02  0.9499110142E-20 -0.2932729999E-03  0.6659918473E+15 -0.6589703625E-03  0.8156059853E-20 -0.4057075935E-03
  0.2570463033E+00  0.1000000000E+01  0.0000000000E+00 -0.4741515671E-03  0.1512912774E-20  0.2222103707E-02  0.6659918473E+15  0.4098498968E-03  0.1098711247E-20  0.2256216800E-02
  0.1429536967E+00  0.1000000000E+01  0.0000000000E+00 -0.1427265905E-02  0.2871638861E-21 -0.1101664611E-02  0.6659918473E+15 -0.7236663361E-03  0.2529584604E-21 -0.1091120101E-02
  0.4698893521E-01  0.1000000000E+01  0.0000000000E+00  0.1361809135E-02 -0.2417157316E-20  0.2026209651E-02  0.6659918473E+15  0.1795589461E-02 -0.2450786677E-20  0.1956705125E-02
  0.0000000000E+00  0.1000000000E+01  0.0000000000E+00 -0.7572009188E-02  0.1564715973E-22  0.2123085836E-02  0.6659918473E+15 -0.7545642121E-02  0.1386969664E-22  0.2043811636E-02
  0.4000000000E+00  0.1000000000E+01  0.4698893521E-01  0.2637790122E+00  0.3036991328E-17 -0.3951148732E-01  0.6659918473E+15  0.2671892461E+00  0.3017869147E-17 -0.4258237610E-01
  0.3530110648E+00  0.1000000000E+01  0.4698893521E-01  0.1246832625E+00  0.2747345439E-17 -0.2138274355E-02  0.6659918473E+15  0.1264331183E+00  0.2733034617E-17 -0.5765092401E-02
  0.2570463033E+00  0.1000000000E+01  0.4698893521E-01  0.9765038268E-01  0.1105668257E-17 -0.1207283887E-01  0.6659918473E+15  0.9844960262E-01  0.1100536799E-17 -0.1489864787E-01
  0.1429536967E+00  0.1000000000E+01  0.4698893521E-01  0.3597947047E-02  0.2963629181E-18 -0.6085567413E-02  0.6659918473E+15  0.3986370848E-02  0.2960783726E-18 -0.8336826989E-02
  0.4698893521E-01  0.1000000000E+01  0.4698893521E-01 -0.2264303719E-02  0.6324097982E-19 -0.6736351821E-02  0.6659918473E+15 -0.2685572333E-02  0.6356096482E-19 -0.7401468065E-02
  0.0000000000E+00  0.1000000000E+01  0.4698893521E-01 -0.1819289585E-01  0.9473755841E-21  0.2888392548E-02  0.6659918473E+15 -0.1815557984E-01  0.9596484859E-21  0.2450889409E-02
  0.4000000000E+00  0.1000000000E+01  0.1429536967E+00  0.5956119969E+00  0.9720647433E-17 -0.1264522225E+00  0.6659918473E+15  0.6031992779E+00  0.9825069499E-17 -0.1116959190E+00
  0.3530110648E+00  0.1000000000E+01  0.1429536967E+00  0.3333273988E+00  0.6098513539E-17 -0.1627414254E+00  0.6659918473E+15  0.3377838081E+00  0.6018337240E-17 -0.1509974028E+00
  0.2570463033E+00  0.1000000000E+01  0.1429536967E+00  0.2337703975E+00  0.2491018730E-17 -0.9937263535E-01  0.6659918473E+15  0.2364445526E+00  0.2495604685E-17 -0.9368298032E-01
  0.1429536967E+00  0.1000000000E+01  0.1429536967E+00  0.3894614159E-01  0.9454600654E-18 -0.1095556403E+00  0.6659918473E+15  0.3981074038E-01  0.9463960968E-18 -0.1083896324E+00
  0.4698893521E-01  0.1000000000E+01  0.1429536967E+00 -0.4284224684E-02  0.2235700577E-18 -0.7221504410E-02  0.6659918473E+15 -0.5499889611E-02  0.2256101374E-18 -0.7564948113E-02
  0.0000000000E+00  0.1000000000E+01  0.1429536967E+00 -0.2140956666E-01  0.2600220100E-21 -0.6045327097E-03  0.6659918473E+15 -0.2134382655E-01  0.1181834208E-21 -0.1240497436E-02
  0.4000000000E+00  0.1000000000E+01  0.2570463033E+00  0.6963152197E+00  0.3857633742E-17 -0.3987726504E+00  0.6659918473E+15  0.7151947554E+00  0.3876117980E-17 -0.3651639812E+00
  0.3530110648E+00  0.1000000000E+01  0.2570463033E+00  0.5098614990E+00  0.2746450998E-17 -0.4401453981E+00  0.6659918473E+15  0.5265300808E+00  0.3145676719E-17 -0.4123953361E+00
  0.2570463033E+00  0.1000000000E+01  0.2570463033E+00  0.3109192908E+00  0.2175436470E-17 -0.3073972442E+00  0.6659918473E+15  0.3248046971E+00  0.2172804851E-17 -0.2929927946E+00
  0.1429536967E+00  0.1000000000E+01  0.2570463033E+00  0.9422934718E-01  0.1605588919E-17 -0.2829669946E+00  0.6659918473E+15  0.1005398004E+00  0.1604724766E-17 -0.2804651832E+00
  0.4698893521E-01  0.1000000000E+01  0.2570463033E+00  0.1371151212E-01  0.1093380579E-17 -0.4905702983E-01  0.6659918473E+15  0.1365520882E-01  0.1090462251E-17 -0.4928282485E-01
  0.0000000000E+00  0.1000000000E+01  0.2570463033E+00 -0.1424268361E-01 -0.4637467077E-20 -0.5660207228E-03  0.6659918473E+15 -0.1424468799E-01 -0.3925825925E-20 -0.9896521805E-03
  0.4000000000E+00  0.1000000000E+01  0.3530110648E+00  0.7460027660E+00  0.4397437739E-17 -0.6762117235E+00  0.6659918473E+15  0.7776689393E+00  0.4375652372E-17 -0.6393922532E+00
  0.3530110648E+00  0.1000000000E+01  0.3530110648E+00  0.5440885069E+00  0.3898683823E-17 -0.6851608321E+00  0.6659918473E+15  0.5737195061E+00  0.3905026790E-17 -0.6546257506E+00
  0.2570463033E+00  0.1000000000E+01  0.3530110648E+00  0.3232442797E+00  0.2278461771E-17 -0.5264400855E+00  0.6659918473E+15  0.3515750427E+00  0.2041049905E-17 -0.5099191577E+00
  0.1429536967E+00  0.1000000000E+01  0.3530110648E+00  0.9570337533E-01  0.2119923056E-17 -0.4272924140E+00  0.6659918473E+15  0.1088183138E+00  0.2109282248E-17 -0.4258925772E+00
  0.4698893521E-01  0.1000000000E+01  0.3530110648E+00  0.1761237075E-01  0.6343115826E-18 -0.1125161629E+00  0.6659918473E+15  0.1584068899E-01  0.6361838628E-18 -0.1126965827E+00
  0.0000000000E+00  0.1000000000E+01  0.3530110648E+00 -0.1447386241E-01  0.4743071795E-20 -0.5499829966E-03  0.6659918473E+15 -0.1431872442E-01  0.5392875542E-20 -0.8654001008E-03
  0.4000000000E+00  0.1000000000E+01  0.4000000000E+00  0.7348152125E+00  0.6525694498E-17 -0.8261216819E+00  0.6659918473E+15  0.7720016500E+00  0.6527972048E-17 -0.7852707526E+00
  0.3530110648E+00  0.1000000000E+01  0.4000000000E+00  0.5808172235E+00  0.5733277441E-17 -0.8224654609E+00  0.6659918473E+15  0.6164599361E+00  0.5640972942E-17 -0.7873485938E+00
  0.2570463033E+00  0.1000000000E+01  0.4000000000E+00  0.3243277590E+00  0.2275514196E-17 -0.6383060027E+00  0.6659918473E+15  0.3602492796E+00  0.2372407343E-17 -0.6178853148E+00
  0.1429536967E+00  0.1000000000E+01  0.4000000000E+00  0.1034853244E+00  0.2309473261E-17 -0.5025714621E+00  0.6659918473E+15  0.1205811408E+00  0.2346012276E-17 -0.4970660246E+00
  0.4698893521E-01  0.1000000000E+01  0.4000000000E+00  0.1498567322E-01  0.6317860481E-18 -0.1412979544E+00  0.6659918473E+15  0.1241100976E-01  0.6313729335E-18 -0.1405959080E+00
  0.0000000000E+00  0.1000000000E+01  0.4000000000E+00 -0.7167095787E-02  0.8716261485E-20 -0.1874414434E-02  0.6659918473E+15 -0.6633051408E-02  0.8344463458E-20 -0.2359368520E-02
ZONE I=6, J=6, K=1, F=POINT
  0.8000000000E+00  0.1000000000E+01  0.0000000000E+00  0.1734342795E-01 -0.8585530420E-19 -0.1222707453E-01  0.6659918473E+15  0.1961208454E-01 -0.8781102036E-19 -0.1198637290E-01
  0.7530110648E+00  0.1000000000E+01  0.0000000000E+00  0.1233754675E-02  0.6015013093E-19  0.5909952387E-02  0.6659918473E+15  0.3569760301E-02  0.1100308284E-18  0.5934308462E-02
  0.6570463033E+00  0.1000000000E+01  0.0000000000E+00 -0.1250718148E-02  0.1272825390E-19  0.2790137920E-03  0.6659918473E+15  0.9096715698E-03  0.4017667831E-19  0.2781553359E-03
  0.5429536967E+00  0.1000000000E+01  0.0000000000E+00  0.1758940612E-03  0.1091938001E-19  0.7143054475E-02  0.6659918473E+15  0.2117782898E-02  0.5871726283E-19  0.7174411788E-02
  0.4469889352E+00  0.1000000000E+01  0.0000000000E+00 -0.2500774602E-02 -0.5408198161E-19  0.6390848176E-03  0.6659918473E+15 -0.8017181247E-03 -0.4093872743E-20  0.5783860864E-03
  0.4000000000E+00  0.1000000000E+01  0.0000000000E+00  0.1449811980E-01  0.3108584423E-19  0.7232947752E-02  0.6659918473E+15  0.1592484930E-01  0.3174453385E-19  0.7241518813E-02
  0.8000000000E+00  0.1000000000E+01  0.4698893521E-01  0.3279086335E+00 -0.2365239538E-16  0.1826059255E-01  0.6659918473E+15  0.3329601313E+00 -0.2370588925E-16  0.1656899899E-01
  0.7530110648E+00  0.1000000000E+01  0.4698893521E-01  0.5205827846E+00 -0.2283972439E-16 -0.4159448440E-01  0.6659918473E+15  0.5244775685E+00 -0.2306197728E-16 -0.4163809408E-01
  0.6570463033E+00  0.1000000000E+01  0.4698893521E-01  0.3007575546E+00 -0.4651915506E-17 -0.1127918883E-01  0.6659918473E+15  0.3045328751E+00 -0.4600204013E-17 -0.6900162784E-02
  0.5429536967E+00  0.1000000000E+01  0.4698893521E-01  0.3297702799E+00  0.4229145285E-17 -0.3292087804E-02  0.6659918473E+15  0.3353504099E+00  0.4326570109E-17  0.2584202065E-03
  0.4469889352E+00  0.1000000000E+01  0.4698893521E-01  0.2003196274E+00  0.3978649390E-17  0.4280279493E-02  0.6659918473E+15  0.2051800934E+00  0.3950273221E-17  0.2411599000E-02
  0.4000000000E+00  0.1000000000E+01  0.4698893521E-01  0.3056484417E+00  0.2797181506E-17 -0.4028279194E-01  0.6659918473E+15  0.3085139954E+00  0.2781068856E-17 -0.4334426771E-01
  0.8000000000E+00  0.1000000000E+01  0.1429536967E+00  0.1075361757E+01 -0.5406916906E-16 -0.3590832449E+00  0.6659918473E+15  0.1075387468E+01 -0.5405499997E-16 -0.3364170708E+00
  0.7530110648E+00  0.1000000000E+01  0.1429536967E+00  0.1363895498E+01 -0.3411532830E-16 -0.2149368706E+00  0.6659918473E+15  0.1362441763E+01 -0.3427551539E-16 -0.1893330947E+00
  0.6570463033E+00  0.1000000000E+01  0.1429536967E+00  0.9152748178E+00 -0.3680247686E-17 -0.2104593186E+00  0.6659918473E+15  0.9176488801E+00 -0.3757232084E-17 -0.1826896802E+00
  0.5429536967E+00  0.1000000000E+01  0.1429536967E+00  0.8380056234E+00  0.9453044547E-17 -0.6611779911E-01  0.6659918473E+15  0.8486849001E+00  0.9774515415E-17 -0.4205824797E-01
  0.4469889352E+00  0.1000000000E+01  0.1429536967E+00  0.5287046603E+00  0.9672076366E-17 -0.1496159116E+00  0.6659918473E+15  0.5394843723E+00  0.9507766815E-17 -0.1312312262E+00
  0.4000000000E+00  0.1000000000E+01  0.1429536967E+00  0.6469570965E+00  0.1042753841E-16 -0.1258951204E+00  0.6659918473E+15  0.6535984379E+00  0.1052268756E-16 -0.1111508644E+00
  0.8000000000E+00  0.1000000000E+01  0.2570463033E+00  0.2113427636E+01 -0.1364373513E-16 -0.9374948666E+00  0.6659918473E+15  0.2105134935E+01 -0.1365341875E-16 -0.8904041916E+00
  0.7530110648E+00  0.1000000000E+01  0.2570463033E+00  0.1977277643E+01 -0.9850833564E-17 -0.6811765920E+00  0.6659918473E+15  0.1971812606E+01 -0.9120641047E-17 -0.6317812596E+00
  0.6570463033E+00  0.1000000000E+01  0.2570463033E+00  0.1491499948E+01 -0.3676151086E-17 -0.6143188189E+00  0.6659918473E+15  0.1495579827E+01 -0.3796463762E-17 -0.5642468426E+00
  0.5429536967E+00  0.1000000000E+01  0.2570463033E+00  0.1131862428E+01  0.2731941790E-17 -0.3515205880E+00  0.6659918473E+15  0.1147800359E+01  0.2983913185E-17 -0.3035423652E+00
  0.4469889352E+00  0.1000000000E+01  0.2570463033E+00  0.7847917620E+00  0.3625592394E-17 -0.4492506710E+00  0.6659918473E+15  0.8058768987E+00  0.4126304263E-17 -0.4091555264E+00
  0.4000000000E+00  0.1000000000E+01  0.2570463033E+00  0.7274115369E+00  0.3882742684E-17 -0.3981220465E+00  0.6659918473E+15  0.7471525226E+00  0.3903776531E-17 -0.3645552867E+00
  0.8000000000E+00  0.1000000000E+01  0.3530110648E+00  0.2354303979E+01  0.1308748894E-17 -0.1439071749E+01  0.6659918473E+15  0.2339593760E+01  0.1314706062E-17 -0.1392374571E+01
  0.7530110648E+00  0.1000000000E+01  0.3530110648E+00  0.2241168246E+01  0.5873353006E-17 -0.1211200615E+01  0.6659918473E+15  0.2233340179E+01  0.5443376763E-17 -0.1162608099E+01
  0.6570463033E+00  0.1000000000E+01  0.3530110648E+00  0.1708636793E+01 -0.6580868365E-18 -0.1017649830E+01  0.6659918473E+15  0.1710258863E+01 -0.1458949890E-17 -0.9648741262E+00
  0.5429536967E+00  0.1000000000E+01  0.3530110648E+00  0.1262911782E+01 -0.7321991176E-18 -0.7022473422E+00  0.6659918473E+15  0.1283664855E+01 -0.2461349317E-17 -0.6477923468E+00
  0.4469889352E+00  0.1000000000E+01  0.3530110648E+00  0.8256705009E+00  0.4071216637E-17 -0.7267850181E+00  0.6659918473E+15  0.8609687955E+00  0.3777814824E-17 -0.6834518799E+00
  0.4000000000E+00  0.1000000000E+01  0.3530110648E+00  0.7786328688E+00  0.4376243761E-17 -0.6760220877E+00  0.6659918473E+15  0.8111520858E+00  0.4349049891E-17 -0.6391935587E+00
  0.8000000000E+00  0.1000000000E+01  0.4000000000E+00  0.2453597679E+01 -0.4319043141E-17 -0.1732777039E+01  0.6659918473E+15  0.2435595427E+01 -0.4311118486E-17 -0.1688666756E+01
  0.7530110648E+00  0.1000000000E+01  0.4000000000E+00  0.2211681347E+01 -0.1080275867E-17 -0.1442795635E+01  0.6659918473E+15  0.2202178904E+01 -0.1262237838E-17 -0.1395620238E+01
  0.6570463033E+00  0.1000000000E+01  0.4000000000E+00  0.1728237789E+01  0.3308056283E-18 -0.1234134421E+01  0.6659918473E+15  0.1727524795E+01  0.6069890018E-18 -0.1183703708E+01
  0.5429536967E+00  0.1000000000E+01  0.4000000000E+00  0.1256695590E+01  0.6820968664E-17 -0.9231878494E+00  0.6659918473E+15  0.1279546291E+01  0.7846981571E-17 -0.8707502871E+00
  0.4469889352E+00  0.1000000000E+01  0.4000000000E+00  0.8847781983E+00  0.6871404595E-17 -0.8990245907E+00  0.6659918473E+15  0.9265285777E+00  0.7622946318E-17 -0.8537349581E+00
  0.4000000000E+00  0.1000000000E+01  0.4000000000E+00  0.7459219944E+00  0.6550821159E-17 -0.8253436082E+00  0.6659918473E+15  0.7831048866E+00  0.6550211547E-17 -0.7845376012E+00
ZONE I=6, J=6, K=1, F=POINT
  0.1200000000E+01  0.1000000000E+01  0.0000000000E+00 -0.3227861737E-01  0.5585526117E-19  0.3605493632E-01  0.6659918473E+15 -0.2993042168E-01  0.5840202158E-19  0.3586096454E-01
  0.1153011065E+01  0.1000000000E+01  0.0000000000E+00 -0.5710443984E-02 -0.2550211512E-18 -0.9906914754E-02  0.6659918473E+15 -0.3320349274E-02 -0.1503104431E-18 -0.9864835711E-02
  0.1057046303E+01  0.1000000000E+01  0.0000000000E+00  0.1704209400E-02  0.7974582444E-20  0.5809624284E-02  0.6659918473E+15  0.4005219818E-02  0.6655588197E-19  0.5861894587E-02
  0.9429536967E+00  0.1000000000E+01  0.0000000000E+00 -0.2337283656E-02  0.2417268822E-20 -0.8336031715E-02  0.6659918473E+15 -0.1922559651E-03  0.2603178898E-20 -0.8282727190E-02
  0.8469889352E+00  0.1000000000E+01  0.0000000000E+00  0.2997772442E-02 -0.2180997768E-19  0.5221057107E-02  0.6659918473E+15  0.5155916960E-02 -0.2459715835E-19  0.5175593889E-02
  0.8000000000E+00  0.1000000000E+01  0.0000000000E+00 -0.2801084926E-01 -0.9563763793E-19 -0.1168633599E-01  0.6659918473E+15 -0.2578688183E-01 -0.9763922362E-19 -0.1146645057E-01
  0.1200000000E+01  0.1000000000E+01  0.4698893521E-01  0.2200964921E+01 -0.4187833798E-16 -0.1889280751E+00  0.6659918473E+15  0.2207143727E+01 -0.4212949119E-16 -0.2009594992E+00
  0.1153011065E+01  0.1000000000E+01  0.4698893521E-01  0.1511102514E+01 -0.2624295656E-16 -0.4505999296E-01  0.6659918473E+15  0.1515110367E+01 -0.2635487093E-16 -0.5490331733E-01
  0.1057046303E+01  0.1000000000E+01  0.4698893521E-01  0.1369843294E+01 -0.1256729990E-16 -0.8404538805E-01  0.6659918473E+15  0.1374156139E+01 -0.1252013907E-16 -0.8766307804E-01
  0.9429536967E+00  0.1000000000E+01  0.4698893521E-01  0.7595640963E+00 -0.1474506680E-16 -0.7133392437E-01  0.6659918473E+15  0.7659429276E+00 -0.1491690919E-16 -0.7248755254E-01
  0.8469889352E+00  0.1000000000E+01  0.4698893521E-01  0.6579006887E+00 -0.2763024440E-16 -0.6863734442E-01  0.6659918473E+15  0.6638131061E+00 -0.2789060313E-16 -0.7084359117E-01
  0.8000000000E+00  0.1000000000E+01  0.4698893521E-01  0.2673347797E+00 -0.2295719035E-16  0.2031658409E-01  0.6659918473E+15  0.2721734975E+00 -0.2301329355E-16  0.1857702177E-01
  0.1200000000E+01  0.1000000000E+01  0.1429536967E+00  0.5101902286E+01 -0.5846125776E-16 -0.6195635625E+00  0.6659918473E+15  0.5109426102E+01 -0.5853848660E-16 -0.6219736061E+00
  0.1153011065E+01  0.1000000000E+01  0.1429536967E+00  0.3651023904E+01 -0.6813114139E-16 -0.8270972700E+00  0.6659918473E+15  0.3649786521E+01 -0.6824269784E-16 -0.8278064076E+00
  0.1057046303E+01  0.1000000000E+01  0.1429536967E+00  0.3255816471E+01 -0.3918103934E-16 -0.6129712681E+00  0.6659918473E+15  0.3253663925E+01 -0.3917773737E-16 -0.6078426696E+00
  0.9429536967E+00  0.1000000000E+01  0.1429536967E+00  0.1990857872E+01 -0.3470725824E-16 -0.7221516765E+00  0.6659918473E+15  0.1994800937E+01 -0.3469458636E-16 -0.7086657746E+00
  0.8469889352E+00  0.1000000000E+01  0.1429536967E+00  0.1707508781E+01 -0.5054945701E-16 -0.3778282008E+00  0.6659918473E+15  0.1710987657E+01 -0.5072354925E-16 -0.3581218734E+00
  0.8000000000E+00  0.1000000000E+01  0.1429536967E+00  0.9913288472E+00 -0.5629683375E-16 -0.3607069771E+00  0.6659918473E+15  0.9928017760E+00 -0.5630072639E-16 -0.3380081530E+00
  0.1200000000E+01  0.1000000000E+01  0.2570463033E+00  0.5350705186E+01 -0.6763035279E-17 -0.1765572960E+01  0.6659918473E+15  0.5351672064E+01 -0.6700532152E-17 -0.1750784933E+01
  0.1153011065E+01  0.1000000000E+01  0.2570463033E+00  0.4819372737E+01 -0.3965473042E-16 -0.2006987249E+01  0.6659918473E+15  0.4814840070E+01 -0.3887486359E-16 -0.1991861753E+01
  0.1057046303E+01  0.1000000000E+01  0.2570463033E+00  0.3984987749E+01 -0.3269110680E-16 -0.1600636583E+01  0.6659918473E+15  0.3976839367E+01 -0.3271503128E-16 -0.1583436991E+01
  0.9429536967E+00  0.1000000000E+01  0.2570463033E+00  0.3019617735E+01 -0.3139737881E-16 -0.1645382726E+01  0.6659918473E+15  0.3010859243E+01 -0.3091449671E-16 -0.1618343611E+01
  0.8469889352E+00  0.1000000000E+01  0.2570463033E+00  0.2475822280E+01 -0.1527695417E-16 -0.1014405008E+01  0.6659918473E+15  0.2467159581E+01 -0.1503561603E-16 -0.9728471070E+00
  0.8000000000E+00  0.1000000000E+01  0.2570463033E+00  0.2075495372E+01 -0.1380494756E-16 -0.9400281102E+00  0.6659918473E+15  0.2067959060E+01 -0.1379685321E-16 -0.8925700490E+00
  0.1200000000E+01  0.1000000000E+01  0.3530110648E+00  0.5607229605E+01  0.3252944833E-16 -0.2917699711E+01  0.6659918473E+15  0.5607314669E+01  0.3255460899E-16 -0.2897538379E+01
  0.1153011065E+01  0.1000000000E+01  0.3530110648E+00  0.4885673223E+01  0.1272742019E-16 -0.2834784690E+01  0.6659918473E+15  0.4879630354E+01  0.1283345355E-16 -0.2813933330E+01
  0.1057046303E+01  0.1000000000E+01  0.3530110648E+00  0.4173626500E+01 -0.8352156981E-17 -0.2449266593E+01  0.6659918473E+15  0.4162584852E+01 -0.8661721153E-17 -0.2426320313E+01
  0.9429536967E+00  0.1000000000E+01  0.3530110648E+00  0.3244356102E+01 -0.1544712589E-16 -0.2237674927E+01  0.6659918473E+15  0.3224053761E+01 -0.1500693757E-16 -0.2208335862E+01
  0.8469889352E+00  0.1000000000E+01  0.3530110648E+00  0.2781275232E+01 -0.1702231632E-17 -0.1629877851E+01  0.6659918473E+15  0.2758239470E+01 -0.2730823668E-17 -0.1588578829E+01
  0.8000000000E+00  0.1000000000E+01  0.3530110648E+00  0.2307566964E+01  0.1358695493E-17 -0.1439322113E+01  0.6659918473E+15  0.2293368977E+01  0.1381009475E-17 -0.1392686116E+01
  0.1200000000E+01  0.1000000000E+01  0.4000000000E+00  0.5305804026E+01  0.3866958181E-16 -0.3218979819E+01  0.6659918473E+15  0.5304440205E+01  0.3868341998E-16 -0.3190286126E+01
  0.1153011065E+01  0.1000000000E+01  0.4000000000E+00  0.4949535395E+01  0.2936510764E-16 -0.3326146291E+01  0.6659918473E+15  0.4942575933E+01  0.2911933458E-16 -0.3298755327E+01
  0.1057046303E+01  0.1000000000E+01  0.4000000000E+00  0.4104083350E+01  0.3312882829E-17 -0.2819887672E+01  0.6659918473E+15  0.4091900877E+01  0.3354974634E-17 -0.2791844286E+01
  0.9429536967E+00  0.1000000000E+01  0.4000000000E+00  0.3302834521E+01 -0.1392317461E-16 -0.2581010106E+01  0.6659918473E+15  0.3278675500E+01 -0.1318012294E-16 -0.2547433344E+01
  0.8469889352E+00  0.1000000000E+01  0.4000000000E+00  0.2731964955E+01 -0.9041289621E-17 -0.1888778082E+01  0.6659918473E+15  0.2703984209E+01 -0.9368338667E-17 -0.1848422981E+01
  0.8000000000E+00  0.1000000000E+01  0.4000000000E+00  0.2449540062E+01 -0.4299743974E-17 -0.1736132227E+01  0.6659918473E+15  0.2431252924E+01 -0.4287090182E-17 -0.1691599906E+01
ZONE I=6, J=6, K=1, F=POINT
  0.1600000000E+01  0.1000000000E+01  0.0000000000E+00  0.1294373251E+00 -0.9225413764E-18 -0.7155358198E-01  0.6659918473E+15  0.1309997365E+00 -0.1039676417E-17 -0.7164068780E-01
  0.1553011065E+01  0.1000000000E+01  0.0000000000E+00  0.9268555174E-02 -0.1256877442E-17  0.4538994414E-01  0.6659918473E+15  0.1121934784E-01 -0.1377587989E-17  0.4518357650E-01
  0.1457046303E+01  0.1000000000E+01  0.0000000000E+00 -0.8105503161E-02 -0.7461143005E-19 -0.3179889959E-02  0.6659918473E+15 -0.6246355070E-02 -0.1380774566E-18 -0.3104848079E-02
  0.1342953697E+01  0.1000000000E+01  0.0000000000E+00  0.4631693776E-02  0.3659068967E-18  0.2981928322E-01  0.6659918473E+15  0.6695196593E-02  0.4812785385E-18  0.2968563076E-01
  0.1246988935E+01  0.1000000000E+01  0.0000000000E+00 -0.8199428787E-02  0.1349669058E-18 -0.8475706278E-02  0.6659918473E+15 -0.6145368580E-02  0.1427013436E-18 -0.8386538015E-02
  0.1200000000E+01  0.1000000000E+01  0.0000000000E+00  0.5726467618E-01  0.5985860390E-19  0.3605420204E-01  0.6659918473E+15  0.5933085242E-01  0.6308563238E-19  0.3591563385E-01
  0.1600000000E+01  0.1000000000E+01  0.4698893521E-01  0.2993572676E+01 -0.8797977864E-16  0.2214309414E+00  0.6659918473E+15  0.2996278511E+01 -0.8805009850E-16  0.2145241319E+00
  0.1553011065E+01  0.1000000000E+01  0.4698893521E-01  0.3486229102E+01 -0.4394163417E-16 -0.2799398556E+00  0.6659918473E+15  0.3490300522E+01 -0.4380561551E-16 -0.2865510229E+00
  0.1457046303E+01  0.1000000000E+01  0.4698893521E-01  0.2514499165E+01 -0.4216693110E-17 -0.8825163955E-01  0.6659918473E+15  0.2519566298E+01 -0.4373665709E-17 -0.9248504307E-01
  0.1342953697E+01  0.1000000000E+01  0.4698893521E-01  0.2509747650E+01  0.2856328849E-16 -0.5487934639E-01  0.6659918473E+15  0.2516803258E+01  0.2862022142E-16 -0.6046674238E-01
  0.1246988935E+01  0.1000000000E+01  0.4698893521E-01  0.1933263277E+01 -0.7376082740E-17 -0.1680096834E-01  0.6659918473E+15  0.1940824283E+01 -0.7037460000E-17 -0.2789125857E-01
  0.1200000000E+01  0.1000000000E+01  0.4698893521E-01  0.2299612416E+01 -0.4610220291E-16 -0.1945920529E+00  0.6659918473E+15  0.2303821876E+01 -0.4632981436E-16 -0.2062485458E+00
  0.1600000000E+01  0.1000000000E+01  0.1429536967E+00  0.6344884638E+01 -0.2664315423E-15 -0.1814973043E+01  0.6659918473E+15  0.6329915060E+01 -0.2663484757E-15 -0.1819147690E+01
  0.1553011065E+01  0.1000000000E+01  0.1429536967E+00  0.8029454357E+01 -0.1415796927E-15 -0.9771105725E+00  0.6659918473E+15  0.8029416954E+01 -0.1417351622E-15 -0.9789673553E+00
  0.1457046303E+01  0.1000000000E+01  0.1429536967E+00  0.5962068021E+01  0.3127862195E-16 -0.9495034342E+00  0.6659918473E+15  0.5966754448E+01  0.3138827733E-16 -0.9489072287E+00
  0.1342953697E+01  0.1000000000E+01  0.1429536967E+00  0.5910245768E+01  0.1001331966E-15 -0.2148141399E+00  0.6659918473E+15  0.5921486703E+01  0.1005604239E-15 -0.2170837634E+00
  0.1246988935E+01  0.1000000000E+01  0.1429536967E+00  0.4544071911E+01  0.2723091516E-16 -0.7502153802E+00  0.6659918473E+15  0.4554657569E+01  0.2659950556E-16 -0.7531504801E+00
  0.1200000000E+01  0.1000000000E+01  0.1429536967E+00  0.5266610388E+01 -0.6258875211E-16 -0.6141220702E+00  0.6659918473E+15  0.5264358689E+01 -0.6256775253E-16 -0.6172400989E+00
  0.1600000000E+01  0.1000000000E+01  0.2570463033E+00  0.1123313567E+02  0.1033582506E-15 -0.3689708530E+01  0.6659918473E+15  0.1123976486E+02  0.1032975540E-15 -0.3677046475E+01
  0.1553011065E+01  0.1000000000E+01  0.2570463033E+00  0.1013709524E+02  0.1264495233E-15 -0.2601918055E+01  0.6659918473E+15  0.1013669147E+02  0.1265740428E-15 -0.2584724891E+01
  0.1457046303E+01  0.1000000000E+01  0.2570463033E+00  0.8735315295E+01  0.1853149114E-15 -0.2458179490E+01  0.6659918473E+15  0.8742475082E+01  0.1856160654E-15 -0.2442958585E+01
  0.1342953697E+01  0.1000000000E+01  0.2570463033E+00  0.7075661774E+01  0.1323235140E-15 -0.1282753576E+01  0.6659918473E+15  0.7090362847E+01  0.1331373257E-15 -0.1270492362E+01
  0.1246988935E+01  0.1000000000E+01  0.2570463033E+00  0.5819931881E+01  0.4197827201E-16 -0.2000814511E+01  0.6659918473E+15  0.5827370330E+01  0.4252513128E-16 -0.1986956110E+01
  0.1200000000E+01  0.1000000000E+01  0.2570463033E+00  0.5391081929E+01 -0.7046836381E-17 -0.1756162533E+01  0.6659918473E+15  0.5391893787E+01 -0.6971260736E-17 -0.1744039667E+01
  0.1600000000E+01  0.1000000000E+01  0.3530110648E+00  0.9671685979E+01  0.2052469032E-15 -0.4243760391E+01  0.6659918473E+15  0.9673606312E+01  0.2051499285E-15 -0.4213002312E+01
  0.1553011065E+01  0.1000000000E+01  0.3530110648E+00  0.9829050407E+01  0.2103705529E-15 -0.4162096779E+01  0.6659918473E+15  0.9832403980E+01  0.2103802310E-15 -0.4135851826E+01
  0.1457046303E+01  0.1000000000E+01  0.3530110648E+00  0.8557740033E+01  0.1992067919E-15 -0.3713312587E+01  0.6659918473E+15  0.8567916804E+01  0.1994377570E-15 -0.3692141483E+01
  0.1342953697E+01  0.1000000000E+01  0.3530110648E+00  0.7232357407E+01  0.1509917802E-15 -0.2853396478E+01  0.6659918473E+15  0.7248125481E+01  0.1512984570E-15 -0.2832176829E+01
  0.1246988935E+01  0.1000000000E+01  0.3530110648E+00  0.5807928645E+01  0.6500361480E-16 -0.2988627542E+01  0.6659918473E+15  0.5816031767E+01  0.6467425928E-16 -0.2968249347E+01
  0.1200000000E+01  0.1000000000E+01  0.3530110648E+00  0.5685363107E+01  0.3263769971E-16 -0.2918147824E+01  0.6659918473E+15  0.5681630727E+01  0.3264019465E-16 -0.2897637901E+01
  0.1600000000E+01  0.1000000000E+01  0.4000000000E+00  0.9825711421E+01  0.2069432825E-15 -0.4987483897E+01  0.6659918473E+15  0.9833875534E+01  0.2068616011E-15 -0.4966106401E+01
  0.1553011065E+01  0.1000000000E+01  0.4000000000E+00  0.9126204134E+01  0.2233650365E-15 -0.4220333822E+01  0.6659918473E+15  0.9134954834E+01  0.2233440366E-15 -0.4199140983E+01
  0.1457046303E+01  0.1000000000E+01  0.4000000000E+00  0.8426451784E+01  0.1942165331E-15 -0.4284666578E+01  0.6659918473E+15  0.8436228878E+01  0.1943482300E-15 -0.4265676854E+01
  0.1342953697E+01  0.1000000000E+01  0.4000000000E+00  0.6951645812E+01  0.1587336998E-15 -0.3280658513E+01  0.6659918473E+15  0.6967796605E+01  0.1597430805E-15 -0.3259838193E+01
  0.1246988935E+01  0.1000000000E+01  0.4000000000E+00  0.5894342339E+01  0.6562804903E-16 -0.3557758659E+01  0.6659918473E+15  0.5901271159E+01  0.6550120145E-16 -0.3529993791E+01
  0.1200000000E+01  0.1000000000E+01  0.4000000000E+00  0.5279441218E+01  0.3892230996E-16 -0.3207061214E+01  0.6659918473E+15  0.5278922841E+01  0.3892487821E-16 -0.3180962198E+01
ZONE I=6, J=6, K=1, F=POINT
  0.2000000000E+01  0.1000000000E+01  0.0000000000E+00  0.2401950025E+01  0.7365328169E-19  0.2123377792E+02  0.6659918473E+15  0.2430095394E+01  0.9470146534E-19  0.2215517860E+02
  0.1953011065E+01  0.1000000000E+01  0.0000000000E+00  0.1290995435E+01 -0.3732853550E-16 -0.1377764934E+00  0.6659918473E+15  0.1296969151E+01 -0.3611273199E-16 -0.1505746375E+00
  0.1857046303E+01  0.1000000000E+01  0.0000000000E+00 -0.3075579708E+00 -0.1885047037E-16  0.1519288017E+00  0.6659918473E+15 -0.3059637509E+00 -0.1922020964E-16  0.1503973165E+00
  0.1742953697E+01  0.1000000000E+01  0.0000000000E+00  0.1337049956E+00  0.2165452225E-18 -0.3727556603E-01  0.6659918473E+15  0.1362929487E+00  0.1131111697E-18 -0.3689899696E-01
  0.1646988935E+01  0.1000000000E+01  0.0000000000E+00 -0.1275887366E+00  0.3215064160E-18  0.6075060355E-01  0.6659918473E+15 -0.1251313058E+00  0.2838932771E-18  0.5976834796E-01
  0.1600000000E+01  0.1000000000E+01  0.0000000000E+00  0.8818934307E-01 -0.1001280097E-17 -0.8362272378E-01  0.6659918473E+15  0.8942060935E-01 -0.1120659841E-17 -0.8236539922E-01
  0.2000000000E+01  0.1000000000E+01  0.4698893521E-01 -0.1270265501E-01  0.7466592945E-18  0.4848188476E+02  0.6659918473E+15 -0.5509068063E-01  0.6864710758E-18  0.4865894104E+02
  0.1953011065E+01  0.1000000000E+01  0.4698893521E-01  0.1095193053E+02  0.1360706834E-15  0.1457549264E+01  0.6659918473E+15  0.1094528888E+02  0.1349115278E-15  0.1480063079E+01
  0.1857046303E+01  0.1000000000E+01  0.4698893521E-01  0.1162815329E+02  0.2881045454E-15 -0.1895538333E+01  0.6659918473E+15  0.1163722455E+02  0.2888865957E-15 -0.1890251325E+01
  0.1742953697E+01  0.1000000000E+01  0.4698893521E-01  0.5747468133E+01 -0.4037243235E-16 -0.6492607615E+00  0.6659918473E+15  0.5758180396E+01 -0.4005667947E-16 -0.6550819513E+00
  0.1646988935E+01  0.1000000000E+01  0.4698893521E-01  0.4456935671E+01 -0.1214949036E-15 -0.6339650985E+00  0.6659918473E+15  0.4462394797E+01 -0.1219734206E-15 -0.6403967481E+00
  0.1600000000E+01  0.1000000000E+01  0.4698893521E-01  0.2829984113E+01 -0.8514264132E-16  0.2072456013E+00  0.6659918473E+15  0.2842016090E+01 -0.8503150410E-16  0.1950444413E+00
  0.2000000000E+01  0.1000000000E+01  0.1429536967E+00 -0.2815443035E+00  0.2736714775E-17  0.5050228249E+02  0.6659918473E+15 -0.2572364573E+00  0.2753497825E-17  0.5044157509E+02
  0.1953011065E+01  0.1000000000E+01  0.1429536967E+00  0.2782098691E+01 -0.5132853072E-15  0.1637710372E+02  0.6659918473E+15  0.2773210172E+01 -0.5127448525E-15  0.1642046480E+02
  0.1857046303E+01  0.1000000000E+01  0.1429536967E+00  0.1270202569E+02 -0.2606029814E-15 -0.3630469534E+01  0.6659918473E+15  0.1271224800E+02 -0.2614458380E-15 -0.3618008338E+01
  0.1742953697E+01  0.1000000000E+01  0.1429536967E+00  0.9977816892E+01 -0.2705086722E-16 -0.4079566239E+01  0.6659918473E+15  0.9994310717E+01 -0.2595316062E-16 -0.4082852484E+01
  0.1646988935E+01  0.1000000000E+01  0.1429536967E+00  0.9332545305E+01 -0.1597051017E-15 -0.2070568927E+01  0.6659918473E+15  0.9339171954E+01 -0.1593943656E-15 -0.2074143981E+01
  0.1600000000E+01  0.1000000000E+01  0.1429536967E+00  0.5973271201E+01 -0.2830198304E-15 -0.1815051585E+01  0.6659918473E+15  0.5998130629E+01 -0.2833001744E-15 -0.1823773155E+01
  0.2000000000E+01  0.1000000000E+01  0.2570463033E+00  0.1902694431E-01  0.1121843693E-17  0.4987227845E+02  0.6659918473E+15  0.1803407341E-01  0.1082920181E-17  0.4987897801E+02