TITLE = "Generated from ../MESH/Convergence_0000000000.hmesh and Convergence_0000003400.hsol"
VARIABLES = "x","y","z","veloT_x","veloT_y","veloT_z","slr_4","velo_x","velo_y","velo_z"
ZONE I=6, J=6, K=1, F=POINT
  0.4000000000E+00  0.1000000000E+01  0.0000000000E+00 -0.1190429678E-01  0.2748000308E-19  0.7294156719E-02  0.6413271931E+15 -0.1138101731E-01  0.2787803202E-19  0.7025449017E-02
  0.3530110648E+00  0.1000000000E+01  0.0000000000E+00 -0.1035272792E-02  0.1146548968E-19 -0.2760807236E-03  0.6413271931E+15 -0.5186954762E-03  0.1092198419E-19 -0.2829682346E-03
  0.2570463033E+00  0.1000000000E+01  0.0000000000E+00  0.1464000826E-03  0.2018860623E-20  0.2380442091E-02  0.6413271931E+15  0.7512108848E-03  0.1978217445E-20  0.2319697772E-02
  0.1429536967E+00  0.1000000000E+01  0.0000000000E+00 -0.7135611306E-03  0.5131477189E-21 -0.1095986102E-02  0.6413271931E+15  0.7176988497E-04  0.4483498079E-21 -0.1070000616E-02
  0.4698893521E-01  0.1000000000E+01  0.0000000000E+00  0.2091857085E-02 -0.2241278187E-20  0.1964194831E-02  0.6413271931E+15  0.2715763259E-02 -0.2162657420E-20  0.1853149035E-02
  0.0000000000E+00  0.1000000000E+01  0.0000000000E+00 -0.7556896541E-02  0.1764328659E-22  0.2031981823E-02  0.6413271931E+15 -0.7428055993E-02  0.1611761618E-22  0.1944763278E-02
  0.4000000000E+00  0.1000000000E+01  0.4698893521E-01  0.2630491157E+00  0.2846176624E-17 -0.5687040928E-01  0.6413271931E+15  0.2641760666E+00  0.2840088237E-17 -0.4620230511E-01
  0.3530110648E+00  0.1000000000E+01  0.4698893521E-01  0.1254661403E+00  0.2574377737E-17 -0.1806972778E-01  0.6413271931E+15  0.1272196725E+00  0.2544520535E-17 -0.8374162839E-02
  0.2570463033E+00  0.1000000000E+01  0.4698893521E-01  0.9899615447E-01  0.9383636096E-18 -0.2499558282E-01  0.6413271931E+15  0.1013358892E+00  0.9464023897E-18 -0.1763405678E-01
  0.1429536967E+00  0.1000000000E+01  0.4698893521E-01  0.3822095154E-02  0.2025013140E-18 -0.1297799333E-01  0.6413271931E+15  0.7380708284E-02  0.2139451541E-18 -0.1048509955E-01
  0.4698893521E-01  0.1000000000E+01  0.4698893521E-01 -0.2699407608E-02  0.3514184918E-19 -0.8043489471E-02  0.6413271931E+15  0.2859402917E-03  0.3812924513E-19 -0.9537896765E-02
  0.0000000000E+00  0.1000000000E+01  0.4698893521E-01 -0.1808125970E-01  0.9936520062E-21  0.2207442006E-02  0.6413271931E+15 -0.1800158329E-01  0.9756947342E-21  0.1511756170E-02
  0.4000000000E+00  0.1000000000E+01  0.1429536967E+00  0.5757845268E+00  0.9087412587E-17 -0.1503920819E+00  0.6413271931E+15  0.5812683705E+00  0.9168161393E-17 -0.1277013444E+00
  0.3530110648E+00  0.1000000000E+01  0.1429536967E+00  0.3206812120E+00  0.5758014724E-17 -0.1856156562E+00  0.6413271931E+15  0.3264945818E+00  0.5620649831E-17 -0.1658139893E+00
  0.2570463033E+00  0.1000000000E+01  0.1429536967E+00  0.2250490315E+00  0.2033104577E-17 -0.1196345187E+00  0.6413271931E+15  0.2327483906E+00  0.2043974825E-17 -0.1065605309E+00
  0.1429536967E+00  0.1000000000E+01  0.1429536967E+00  0.2951938073E-01  0.6696643049E-18 -0.1221584945E+00  0.6413271931E+15  0.3942515364E-01  0.6725175864E-18 -0.1178854399E+00
  0.4698893521E-01  0.1000000000E+01  0.1429536967E+00 -0.1014151210E-01  0.1434936064E-18 -0.1104639842E-01  0.6413271931E+15 -0.3908130665E-02  0.1490620489E-18 -0.1245414162E-01
  0.0000000000E+00  0.1000000000E+01  0.1429536967E+00 -0.2126264369E-01  0.5863327153E-21 -0.1377177168E-02  0.6413271931E+15 -0.2126370113E-01  0.4347878522E-21 -0.2142303850E-02
  0.4000000000E+00  0.1000000000E+01  0.2570463033E+00  0.6393055314E+00  0.2769571753E-17 -0.4090231893E+00  0.6413271931E+15  0.6525877726E+00  0.2773183121E-17 -0.3781778761E+00
  0.3530110648E+00  0.1000000000E+01  0.2570463033E+00  0.4645003167E+00  0.1233571601E-17 -0.4509523100E+00  0.6413271931E+15  0.4806694428E+00  0.1612014812E-17 -0.4249778345E+00
  0.2570463033E+00  0.1000000000E+01  0.2570463033E+00  0.2785439037E+00  0.1421654963E-17 -0.3186519469E+00  0.6413271931E+15  0.2966831632E+00  0.1418887036E-17 -0.3035198012E+00
  0.1429536967E+00  0.1000000000E+01  0.2570463033E+00  0.6725591801E-01  0.1159666310E-17 -0.2930217360E+00  0.6413271931E+15  0.8562182143E-01  0.1157716310E-17 -0.2877739889E+00
  0.4698893521E-01  0.1000000000E+01  0.2570463033E+00 -0.1553381629E-02  0.8932643402E-18 -0.5300115678E-01  0.6413271931E+15  0.9378878537E-02  0.8815743385E-18 -0.5391248096E-01
  0.0000000000E+00  0.1000000000E+01  0.2570463033E+00 -0.1413834052E-01 -0.5083981724E-20 -0.1159411482E-02  0.6413271931E+15 -0.1408843663E-01 -0.4649130630E-20 -0.1914885889E-02
  0.4000000000E+00  0.1000000000E+01  0.3530110648E+00  0.6514657262E+00  0.3056796790E-17 -0.6572324965E+00  0.6413271931E+15  0.6751570891E+00  0.3041863648E-17 -0.6271275904E+00
  0.3530110648E+00  0.1000000000E+01  0.3530110648E+00  0.4644887812E+00  0.2664062044E-17 -0.6675136279E+00  0.6413271931E+15  0.4929191833E+00  0.2668336995E-17 -0.6439426360E+00
  0.2570463033E+00  0.1000000000E+01  0.3530110648E+00  0.2685897629E+00  0.1713829103E-17 -0.5153517775E+00  0.6413271931E+15  0.2963158269E+00  0.1524069363E-17 -0.5023805196E+00
  0.1429536967E+00  0.1000000000E+01  0.3530110648E+00  0.5442145368E-01  0.1709627394E-17 -0.4273940396E+00  0.6413271931E+15  0.7981401247E-01  0.1673372356E-17 -0.4229570347E+00
  0.4698893521E-01  0.1000000000E+01  0.3530110648E+00 -0.5951324821E-02  0.4847989973E-18 -0.1140785227E+00  0.6413271931E+15  0.9496636457E-02  0.4951568714E-18 -0.1151977539E+00
  0.0000000000E+00  0.1000000000E+01  0.3530110648E+00 -0.1423967878E-01  0.4317219748E-20 -0.1470478378E-02  0.6413271931E+15 -0.1430158031E-01  0.4338463656E-20 -0.2163088325E-02
  0.4000000000E+00  0.1000000000E+01  0.4000000000E+00  0.6221067316E+00  0.5137845858E-17 -0.7750115134E+00  0.6413271931E+15  0.6523701779E+00  0.5131864823E-17 -0.7527049348E+00
  0.3530110648E+00  0.1000000000E+01  0.4000000000E+00  0.4827902582E+00  0.4525641504E-17 -0.7770976609E+00  0.6413271931E+15  0.5171289908E+00  0.4504026445E-17 -0.7608215412E+00
  0.2570463033E+00  0.1000000000E+01  0.4000000000E+00  0.2601462056E+00  0.1351551791E-17 -0.6077426893E+00  0.6413271931E+15  0.2914820274E+00  0.1361502089E-17 -0.6002131201E+00
  0.1429536967E+00  0.1000000000E+01  0.4000000000E+00  0.5686540418E-01  0.1725870744E-17 -0.4930254424E+00  0.6413271931E+15  0.8480008677E-01  0.1761705346E-17 -0.4911482876E+00
  0.4698893521E-01  0.1000000000E+01  0.4000000000E+00 -0.1148217749E-01  0.4811772500E-18 -0.1421492751E+00  0.6413271931E+15  0.5420327015E-02  0.4831970364E-18 -0.1429981270E+00
  0.0000000000E+00  0.1000000000E+01  0.4000000000E+00 -0.6711215140E-02  0.8316641067E-20 -0.3017090504E-02  0.6413271931E+15 -0.6825071861E-02  0.8309752241E-20 -0.3315342289E-02
ZONE I=6, J=6, K=1, F=POINT
  0.8000000000E+00  0.1000000000E+01  0.0000000000E+00  0.1631027621E-01 -0.8311971582E-19 -0.1141028830E-01  0.6413271931E+15  0.1667063773E-01 -0.8581230814E-19 -0.1108598731E-01
  0.7530110648E+00  0.1000000000E+01  0.0000000000E+00  0.9100497945E-03  0.6042921565E-19  0.5983160762E-02  0.6413271931E+15  0.1534433667E-02  0.7252482660E-19  0.6032824000E-02
  0.6570463033E+00  0.1000000000E+01  0.0000000000E+00 -0.1352170808E-02  0.1223477912E-19  0.2181367823E-03  0.6413271931E+15 -0.7309189287E-03  0.1933525442E-19  0.2356725510E-03
  0.5429536967E+00  0.1000000000E+01  0.0000000000E+00 -0.3905376158E-04  0.6350792017E-20  0.6830040178E-02  0.6413271931E+15  0.6210574293E-03  0.2169633061E-19  0.6876501275E-02
  0.4469889352E+00  0.1000000000E+01  0.0000000000E+00 -0.2677724080E-02 -0.5696009694E-19  0.5545805155E-03  0.6413271931E+15 -0.1819962436E-02 -0.3141170802E-19  0.5421293386E-03
  0.4000000000E+00  0.1000000000E+01  0.0000000000E+00  0.1426292052E-01  0.3116035112E-19  0.6983834582E-02  0.6413271931E+15  0.1508433397E-01  0.3153584580E-19  0.6730405380E-02
  0.8000000000E+00  0.1000000000E+01  0.4698893521E-01  0.3120688041E+00 -0.2454572274E-16 -0.7309694007E-02  0.6413271931E+15  0.3103497793E+00 -0.2451875883E-16  0.1182993327E-01
  0.7530110648E+00  0.1000000000E+01  0.4698893521E-01  0.5069822007E+00 -0.2380728820E-16 -0.6733824232E-01  0.6413271931E+15  0.5069171354E+00 -0.2382624727E-16 -0.4799027057E-01
  0.6570463033E+00  0.1000000000E+01  0.4698893521E-01  0.2916922647E+00 -0.5100051143E-17 -0.3706428825E-01  0.6413271931E+15  0.2924454882E+00 -0.5065191260E-17 -0.1913468623E-01
  0.5429536967E+00  0.1000000000E+01  0.4698893521E-01  0.3251818224E+00  0.4071291638E-17 -0.2516259393E-01  0.6413271931E+15  0.3261857856E+00  0.4097952579E-17 -0.1043228487E-01
  0.4469889352E+00  0.1000000000E+01  0.4698893521E-01  0.1991081662E+00  0.3806815613E-17 -0.1478068259E-01  0.6413271931E+15  0.2006294526E+00  0.3787690804E-17 -0.2939742723E-02
  0.4000000000E+00  0.1000000000E+01  0.4698893521E-01  0.3046857035E+00  0.2607754633E-17 -0.5763147621E-01  0.6413271931E+15  0.3063242202E+00  0.2598428632E-17 -0.4695113337E-01
  0.8000000000E+00  0.1000000000E+01  0.1429536967E+00  0.9876561466E+00 -0.5570138107E-16 -0.3833845118E+00  0.6413271931E+15  0.9840867902E+00 -0.5578511117E-16 -0.3456636579E+00
  0.7530110648E+00  0.1000000000E+01  0.1429536967E+00  0.1286874956E+01 -0.3552745572E-16 -0.2425645440E+00  0.6413271931E+15  0.1287541316E+01 -0.3578744923E-16 -0.2045922057E+00
  0.6570463033E+00  0.1000000000E+01  0.1429536967E+00  0.8573412749E+00 -0.5056967953E-17 -0.2417600275E+00  0.6413271931E+15  0.8615745219E+00 -0.5205728703E-17 -0.2062449262E+00
  0.5429536967E+00  0.1000000000E+01  0.1429536967E+00  0.7981587453E+00  0.8654920913E-17 -0.9810982897E-01  0.6413271931E+15  0.8035564221E+00  0.8828400177E-17 -0.6795127016E-01
  0.4469889352E+00  0.1000000000E+01  0.1429536967E+00  0.5044191318E+00  0.9289961687E-17 -0.1757112019E+00  0.6413271931E+15  0.5100267042E+00  0.9126200280E-17 -0.1505550433E+00
  0.4000000000E+00  0.1000000000E+01  0.1429536967E+00  0.6271630996E+00  0.9796124093E-17 -0.1498626227E+00  0.6413271931E+15  0.6323430777E+00  0.9875377996E-17 -0.1271702441E+00
  0.8000000000E+00  0.1000000000E+01  0.2570463033E+00  0.1909672211E+01 -0.1640605751E-16 -0.9028318723E+00  0.6413271931E+15  0.1901325237E+01 -0.1642661095E-16 -0.8688315551E+00
  0.7530110648E+00  0.1000000000E+01  0.2570463033E+00  0.1794643356E+01 -0.1298608962E-16 -0.6569978754E+00  0.6413271931E+15  0.1793462503E+01 -0.1244276917E-16 -0.6197127920E+00
  0.6570463033E+00  0.1000000000E+01  0.2570463033E+00  0.1350660532E+01 -0.5731024238E-17 -0.6039898120E+00  0.6413271931E+15  0.1357597247E+01 -0.5927346393E-17 -0.5640011634E+00
  0.5429536967E+00  0.1000000000E+01  0.2570463033E+00  0.1031104352E+01  0.1254921463E-17 -0.3533526854E+00  0.6413271931E+15  0.1041472473E+01  0.1417377559E-17 -0.3153041803E+00
  0.4469889352E+00  0.1000000000E+01  0.2570463033E+00  0.7127829196E+00  0.1929211379E-17 -0.4574480428E+00  0.6413271931E+15  0.7246161784E+00  0.2366394891E-17 -0.4233155645E+00
  0.4000000000E+00  0.1000000000E+01  0.2570463033E+00  0.6698623515E+00  0.2793823737E-17 -0.4083770604E+00  0.6413271931E+15  0.6833285890E+00  0.2798650877E-17 -0.3775733567E+00
  0.8000000000E+00  0.1000000000E+01  0.3530110648E+00  0.2058151348E+01 -0.2350358550E-17 -0.1333172743E+01  0.6413271931E+15  0.2039818729E+01 -0.2314839643E-17 -0.1305259853E+01
  0.7530110648E+00  0.1000000000E+01  0.3530110648E+00  0.1972087447E+01  0.3815756500E-17 -0.1120667684E+01  0.6413271931E+15  0.1962671466E+01  0.3275967123E-17 -0.1087364230E+01
  0.6570463033E+00  0.1000000000E+01  0.3530110648E+00  0.1494368672E+01 -0.2499668621E-17 -0.9528250971E+00  0.6413271931E+15  0.1498557103E+01 -0.3221829064E-17 -0.9117687342E+00
  0.5429536967E+00  0.1000000000E+01  0.3530110648E+00  0.1112044146E+01 -0.1861124898E-17 -0.6603171367E+00  0.6413271931E+15  0.1125240068E+01 -0.3031298930E-17 -0.6179807193E+00
  0.4469889352E+00  0.1000000000E+01  0.3530110648E+00  0.7185671268E+00  0.2967055671E-17 -0.7013689020E+00  0.6413271931E+15  0.7373202311E+00  0.2697587295E-17 -0.6661007308E+00
  0.4000000000E+00  0.1000000000E+01  0.3530110648E+00  0.6841314988E+00  0.3034040891E-17 -0.6570448599E+00  0.6413271931E+15  0.7073188265E+00  0.3017050657E-17 -0.6269356800E+00
  0.8000000000E+00  0.1000000000E+01  0.4000000000E+00  0.2120076651E+01 -0.8384359875E-17 -0.1587764922E+01  0.6413271931E+15  0.2097107739E+01 -0.8382955816E-17 -0.1556072670E+01
  0.7530110648E+00  0.1000000000E+01  0.4000000000E+00  0.1909400484E+01 -0.4340660532E-17 -0.1312782010E+01  0.6413271931E+15  0.1895844849E+01 -0.4430756451E-17 -0.1278019393E+01
  0.6570463033E+00  0.1000000000E+01  0.4000000000E+00  0.1486889644E+01 -0.2305982339E-17 -0.1137145387E+01  0.6413271931E+15  0.1488235379E+01 -0.2125057120E-17 -0.1094699267E+01
  0.5429536967E+00  0.1000000000E+01  0.4000000000E+00  0.1083636989E+01  0.4136132507E-17 -0.8550794669E+00  0.6413271931E+15  0.1099267401E+01  0.5028340011E-17 -0.8124271572E+00
  0.4469889352E+00  0.1000000000E+01  0.4000000000E+00  0.7586250014E+00  0.5204596853E-17 -0.8434120796E+00  0.6413271931E+15  0.7838598375E+00  0.5576961123E-17 -0.8133681782E+00
  0.4000000000E+00  0.1000000000E+01  0.4000000000E+00  0.6328541701E+00  0.5160214673E-17 -0.7743208680E+00  0.6413271931E+15  0.6626089607E+00  0.5154718475E-17 -0.7520124314E+00
ZONE I=6, J=6, K=1, F=POINT
  0.1200000000E+01  0.1000000000E+01  0.0000000000E+00 -0.3342912107E-01  0.5692022444E-19  0.3664470218E-01  0.6413271931E+15 -0.3349850574E-01  0.5798003416E-19  0.3644087141E-01
  0.1153011065E+01  0.1000000000E+01  0.0000000000E+00 -0.6921617725E-02 -0.2965341735E-18 -0.9766646088E-02  0.6413271931E+15 -0.7019200410E-02 -0.3099311362E-18 -0.9816527593E-02
  0.1057046303E+01  0.1000000000E+01  0.0000000000E+00  0.3674341016E-03 -0.2596175161E-19  0.5919913858E-02  0.6413271931E+15  0.3291803739E-03 -0.2766830399E-19  0.5931683308E-02
  0.9429536967E+00  0.1000000000E+01  0.0000000000E+00 -0.3879319887E-02  0.8267782885E-20 -0.8225965656E-02  0.6413271931E+15 -0.4098444303E-02  0.5540772102E-20 -0.8247135380E-02
  0.8469889352E+00  0.1000000000E+01  0.0000000000E+00  0.1639791838E-02 -0.1871149251E-19  0.5458486186E-02  0.6413271931E+15  0.1532729330E-02 -0.2124169605E-19  0.5506518568E-02
  0.8000000000E+00  0.1000000000E+01  0.0000000000E+00 -0.2894067710E-01 -0.9270945949E-19 -0.1087443803E-01  0.6413271931E+15 -0.2862279553E-01 -0.9565869382E-19 -0.1056332448E-01
  0.1200000000E+01  0.1000000000E+01  0.4698893521E-01  0.2125887836E+01 -0.4209666438E-16 -0.1948353119E+00  0.6413271931E+15  0.2123274875E+01 -0.4195876173E-16 -0.1908995944E+00
  0.1153011065E+01  0.1000000000E+01  0.4698893521E-01  0.1446904904E+01 -0.2673531314E-16 -0.5154152996E-01  0.6413271931E+15  0.1442401051E+01 -0.2659783380E-16 -0.4618332298E-01
  0.1057046303E+01  0.1000000000E+01  0.4698893521E-01  0.1321494535E+01 -0.1310567459E-16 -0.9465979118E-01  0.6413271931E+15  0.1316649595E+01 -0.1314933099E-16 -0.8506549601E-01
  0.9429536967E+00  0.1000000000E+01  0.4698893521E-01  0.7294178076E+00 -0.1576247594E-16 -0.8978581851E-01  0.6413271931E+15  0.7246414998E+00 -0.1561721554E-16 -0.7493719710E-01
  0.8469889352E+00  0.1000000000E+01  0.4698893521E-01  0.6367926204E+00 -0.2868424802E-16 -0.9182555272E-01  0.6413271931E+15  0.6324603456E+00 -0.2850702243E-16 -0.7340076423E-01
  0.8000000000E+00  0.1000000000E+01  0.4698893521E-01  0.2510515549E+00 -0.2384644230E-16 -0.5255726769E-02  0.6413271931E+15  0.2492702979E+00 -0.2382405264E-16  0.1383336282E-01
  0.1200000000E+01  0.1000000000E+01  0.1429536967E+00  0.4855768210E+01 -0.5942840183E-16 -0.5998557039E+00  0.6413271931E+15  0.4853512345E+01 -0.5925190627E-16 -0.5884413441E+00
  0.1153011065E+01  0.1000000000E+01  0.1429536967E+00  0.3424705181E+01 -0.6900096224E-16 -0.8068776377E+00  0.6413271931E+15  0.3416488384E+01 -0.6960488939E-16 -0.7931168350E+00
  0.1057046303E+01  0.1000000000E+01  0.1429536967E+00  0.3076283998E+01 -0.4147397816E-16 -0.5996572530E+00  0.6413271931E+15  0.3065666219E+01 -0.4144241115E-16 -0.5808115590E+00
  0.9429536967E+00  0.1000000000E+01  0.1429536967E+00  0.1862174283E+01 -0.3697286189E-16 -0.7236043810E+00  0.6413271931E+15  0.1850974120E+01 -0.3694595703E-16 -0.6957477323E+00
  0.8469889352E+00  0.1000000000E+01  0.1429536967E+00  0.1608495997E+01 -0.5256353199E-16 -0.3969119316E+00  0.6413271931E+15  0.1599804341E+01 -0.5253643241E-16 -0.3615874244E+00
  0.8000000000E+00  0.1000000000E+01  0.1429536967E+00  0.9047798192E+00 -0.5789320956E-16 -0.3849652251E+00  0.6413271931E+15  0.9021805892E+00 -0.5801079634E-16 -0.3472391847E+00
  0.1200000000E+01  0.1000000000E+01  0.2570463033E+00  0.4884301207E+01 -0.1020483575E-16 -0.1670485193E+01  0.6413271931E+15  0.4872418081E+01 -0.1015545966E-16 -0.1662455607E+01
  0.1153011065E+01  0.1000000000E+01  0.2570463033E+00  0.4383384180E+01 -0.4631642639E-16 -0.1911292615E+01  0.6413271931E+15  0.4370115320E+01 -0.4466905249E-16 -0.1901884173E+01
  0.1057046303E+01  0.1000000000E+01  0.2570463033E+00  0.3618850853E+01 -0.3758557905E-16 -0.1512601423E+01  0.6413271931E+15  0.3601751154E+01 -0.3762585476E-16 -0.1498474714E+01
  0.9429536967E+00  0.1000000000E+01  0.2570463033E+00  0.2735560307E+01 -0.3699003162E-16 -0.1574307081E+01  0.6413271931E+15  0.2714366885E+01 -0.3583435545E-16 -0.1551956207E+01
  0.8469889352E+00  0.1000000000E+01  0.2570463033E+00  0.2250448405E+01 -0.1823349150E-16 -0.9696186375E+00  0.6413271931E+15  0.2233424381E+01 -0.1841327929E-16 -0.9393473534E+00
  0.8000000000E+00  0.1000000000E+01  0.2570463033E+00  0.1872448791E+01 -0.1658090728E-16 -0.9052811009E+00  0.6413271931E+15  0.1863451870E+01 -0.1658413997E-16 -0.8709556070E+00
  0.1200000000E+01  0.1000000000E+01  0.3530110648E+00  0.4973705347E+01  0.2636070794E-16 -0.2760181124E+01  0.6413271931E+15  0.4957852875E+01  0.2639594549E-16 -0.2758531112E+01
  0.1153011065E+01  0.1000000000E+01  0.3530110648E+00  0.4293426548E+01  0.5565075085E-17 -0.2669782434E+01  0.6413271931E+15  0.4275681884E+01  0.5823939886E-17 -0.2665568203E+01
  0.1057046303E+01  0.1000000000E+01  0.3530110648E+00  0.3658825779E+01 -0.1466085053E-16 -0.2282838935E+01  0.6413271931E+15  0.3636129532E+01 -0.1477570466E-16 -0.2272620852E+01
  0.9429536967E+00  0.1000000000E+01  0.3530110648E+00  0.2828246643E+01 -0.2172345663E-16 -0.2089025014E+01  0.6413271931E+15  0.2800435132E+01 -0.2091979233E-16 -0.2072301250E+01
  0.8469889352E+00  0.1000000000E+01  0.3530110648E+00  0.2449460262E+01 -0.4808289920E-17 -0.1509734014E+01  0.6413271931E+15  0.2424594276E+01 -0.5743178361E-17 -0.1486339274E+01
  0.8000000000E+00  0.1000000000E+01  0.3530110648E+00  0.2011751930E+01 -0.2307237755E-17 -0.1333419218E+01  0.6413271931E+15  0.1994143367E+01 -0.2256766448E-17 -0.1305558276E+01
  0.1200000000E+01  0.1000000000E+01  0.4000000000E+00  0.4604712255E+01  0.3138921210E-16 -0.3045096230E+01  0.6413271931E+15  0.4586072877E+01  0.3141453405E-16 -0.3038282185E+01
  0.1153011065E+01  0.1000000000E+01  0.4000000000E+00  0.4290404028E+01  0.2237219661E-16 -0.3135249384E+01  0.6413271931E+15  0.4269251196E+01  0.2209875723E-16 -0.3125570666E+01
  0.1057046303E+01  0.1000000000E+01  0.4000000000E+00  0.3527582900E+01 -0.3430068769E-17 -0.2614207736E+01  0.6413271931E+15  0.3502441301E+01 -0.3484666261E-17 -0.2598846637E+01
  0.9429536967E+00  0.1000000000E+01  0.4000000000E+00  0.2833404625E+01 -0.2060750223E-16 -0.2391239524E+01  0.6413271931E+15  0.2802904584E+01 -0.1969560684E-16 -0.2370791916E+01
  0.8469889352E+00  0.1000000000E+01  0.4000000000E+00  0.2355978084E+01 -0.1329783464E-16 -0.1730870991E+01  0.6413271931E+15  0.2327119424E+01 -0.1368297878E-16 -0.1703852830E+01
  0.8000000000E+00  0.1000000000E+01  0.4000000000E+00  0.2116764005E+01 -0.8370612586E-17 -0.1590992593E+01  0.6413271931E+15  0.2093077545E+01 -0.8363512384E-17 -0.1559002114E+01
ZONE I=6, J=6, K=1, F=POINT
  0.1600000000E+01  0.1000000000E+01  0.0000000000E+00  0.1293414564E+00 -0.9023799208E-18 -0.7179615823E-01  0.6413271931E+15  0.1285365613E+00 -0.1023599966E-17 -0.7199348808E-01
  0.1553011065E+01  0.1000000000E+01  0.0000000000E+00  0.8996955163E-02 -0.1246542110E-17  0.4533909911E-01  0.6413271931E+15  0.8444220707E-02 -0.1248385362E-17  0.4511225147E-01
  0.1457046303E+01  0.1000000000E+01  0.0000000000E+00 -0.8866113565E-02 -0.4762859660E-19 -0.3177868627E-02  0.6413271931E+15 -0.9413911263E-02 -0.5608824181E-19 -0.3141970633E-02
  0.1342953697E+01  0.1000000000E+01  0.0000000000E+00  0.3598361178E-02  0.3081666969E-18  0.2989737387E-01  0.6413271931E+15  0.3328721629E-02  0.2945794806E-18  0.2974568885E-01
  0.1246988935E+01  0.1000000000E+01  0.0000000000E+00 -0.9507602311E-02  0.1147049708E-18 -0.8319694313E-02  0.6413271931E+15 -0.9661636686E-02  0.1212894850E-18 -0.8263769593E-02
  0.1200000000E+01  0.1000000000E+01  0.0000000000E+00  0.5589530369E-01  0.6070095829E-19  0.3672073314E-01  0.6413271931E+15  0.5590067532E-01  0.6176160161E-19  0.3650971340E-01
  0.1600000000E+01  0.1000000000E+01  0.4698893521E-01  0.2983753115E+01 -0.8919382737E-16  0.2157181391E+00  0.6413271931E+15  0.2980326570E+01 -0.8911590635E-16  0.2218775516E+00
  0.1553011065E+01  0.1000000000E+01  0.4698893521E-01  0.3447152024E+01 -0.4468356875E-16 -0.2862420868E+00  0.6413271931E+15  0.3444615032E+01 -0.4476318283E-16 -0.2816660879E+00
  0.1457046303E+01  0.1000000000E+01  0.4698893521E-01  0.2442619530E+01 -0.4970428242E-17 -0.9353158404E-01  0.6413271931E+15  0.2439905951E+01 -0.4876133406E-17 -0.9018531053E-01
  0.1342953697E+01  0.1000000000E+01  0.4698893521E-01  0.2419011072E+01  0.2878344776E-16 -0.5895464676E-01  0.6413271931E+15  0.2416298146E+01  0.2875974217E-16 -0.5529691375E-01
  0.1246988935E+01  0.1000000000E+01  0.4698893521E-01  0.1852301551E+01 -0.6911259179E-17 -0.1989094572E-01  0.6413271931E+15  0.1849530029E+01 -0.7023820669E-17 -0.1650032648E-01
  0.1200000000E+01  0.1000000000E+01  0.4698893521E-01  0.2223765227E+01 -0.4629566229E-16 -0.2005090849E+00  0.6413271931E+15  0.2219360856E+01 -0.4613504154E-16 -0.1962062551E+00
  0.1600000000E+01  0.1000000000E+01  0.1429536967E+00  0.6191994359E+01 -0.2676563594E-15 -0.1901438548E+01  0.6413271931E+15  0.6176053387E+01 -0.2676441402E-15 -0.1898388204E+01
  0.1553011065E+01  0.1000000000E+01  0.1429536967E+00  0.7834062906E+01 -0.1452858344E-15 -0.1050726029E+01  0.6413271931E+15  0.7834048213E+01 -0.1454573490E-15 -0.1048327867E+01
  0.1457046303E+01  0.1000000000E+01  0.1429536967E+00  0.5699846023E+01  0.3148752994E-16 -0.9876411415E+00  0.6413271931E+15  0.5698256913E+01  0.3119423528E-16 -0.9866344203E+00
  0.1342953697E+01  0.1000000000E+01  0.1429536967E+00  0.5623181145E+01  0.1010004156E-15 -0.2152645038E+00  0.6413271931E+15  0.5618158028E+01  0.1008330606E-15 -0.2117360182E+00
  0.1246988935E+01  0.1000000000E+01  0.1429536967E+00  0.4282607913E+01  0.2620662616E-16 -0.7280238326E+00  0.6413271931E+15  0.4277895854E+01  0.2667312776E-16 -0.7185214197E+00
  0.1200000000E+01  0.1000000000E+01  0.1429536967E+00  0.5021281600E+01 -0.6358804600E-16 -0.5945921138E+00  0.6413271931E+15  0.5009010581E+01 -0.6330630715E-16 -0.5838002383E+00
  0.1600000000E+01  0.1000000000E+01  0.2570463033E+00  0.1084526082E+02  0.9293571398E-16 -0.3918093168E+01  0.6413271931E+15  0.1085008224E+02  0.9287246641E-16 -0.3932850907E+01
  0.1553011065E+01  0.1000000000E+01  0.2570463033E+00  0.9697580065E+01  0.1172469526E-15 -0.2792028301E+01  0.6413271931E+15  0.9697846819E+01  0.1170256963E-15 -0.2799546622E+01
  0.1457046303E+01  0.1000000000E+01  0.2570463033E+00  0.8225292172E+01  0.1828216619E-15 -0.2555377320E+01  0.6413271931E+15  0.8222331301E+01  0.1825343231E-15 -0.2557457059E+01
  0.1342953697E+01  0.1000000000E+01  0.2570463033E+00  0.6550541488E+01  0.1323148933E-15 -0.1266268201E+01  0.6413271931E+15  0.6542097607E+01  0.1318098177E-15 -0.1265997220E+01
  0.1246988935E+01  0.1000000000E+01  0.2570463033E+00  0.5328947119E+01  0.4075231284E-16 -0.1914807686E+01  0.6413271931E+15  0.5316441336E+01  0.4017909648E-16 -0.1909720295E+01
  0.1200000000E+01  0.1000000000E+01  0.2570463033E+00  0.4924679503E+01 -0.1051644483E-16 -0.1661434226E+01  0.6413271931E+15  0.4912812533E+01 -0.1045057417E-16 -0.1655867089E+01
  0.1600000000E+01  0.1000000000E+01  0.3530110648E+00  0.9104166100E+01  0.1843695078E-15 -0.4606839470E+01  0.6413271931E+15  0.9099950042E+01  0.1843178018E-15 -0.4612334182E+01
  0.1553011065E+01  0.1000000000E+01  0.3530110648E+00  0.9206723322E+01  0.1935520077E-15 -0.4462324784E+01  0.6413271931E+15  0.9198440821E+01  0.1934765806E-15 -0.4467253348E+01
  0.1457046303E+01  0.1000000000E+01  0.3530110648E+00  0.7863060478E+01  0.1917719206E-15 -0.3858658479E+01  0.6413271931E+15  0.7855918068E+01  0.1912111873E-15 -0.3857135768E+01
  0.1342953697E+01  0.1000000000E+01  0.3530110648E+00  0.6519468220E+01  0.1467100879E-15 -0.2820102013E+01  0.6413271931E+15  0.6511786015E+01  0.1464469903E-15 -0.2817586380E+01
  0.1246988935E+01  0.1000000000E+01  0.3530110648E+00  0.5133037337E+01  0.5948293598E-16 -0.2850402758E+01  0.6413271931E+15  0.5117940601E+01  0.6004583573E-16 -0.2849443890E+01
  0.1200000000E+01  0.1000000000E+01  0.3530110648E+00  0.5049678863E+01  0.2645710176E-16 -0.2760773955E+01  0.6413271931E+15  0.5030775876E+01  0.2646310028E-16 -0.2758736589E+01
  0.1600000000E+01  0.1000000000E+01  0.4000000000E+00  0.9190016022E+01  0.1828078432E-15 -0.5428326014E+01  0.6413271931E+15  0.9190170381E+01  0.1827395626E-15 -0.5425361391E+01
  0.1553011065E+01  0.1000000000E+01  0.4000000000E+00  0.8434544504E+01  0.2032382471E-15 -0.4577628294E+01  0.6413271931E+15  0.8426631959E+01  0.2034914149E-15 -0.4573855886E+01
  0.1457046303E+01  0.1000000000E+01  0.4000000000E+00  0.7656468487E+01  0.1820588425E-15 -0.4450676169E+01  0.6413271931E+15  0.7646704066E+01  0.1821979600E-15 -0.4445409678E+01
  0.1342953697E+01  0.1000000000E+01  0.4000000000E+00  0.6162747893E+01  0.1530400870E-15 -0.3238073455E+01  0.6413271931E+15  0.6156826018E+01  0.1527008740E-15 -0.3231815212E+01
  0.1246988935E+01  0.1000000000E+01  0.4000000000E+00  0.5147036870E+01  0.5928204908E-16 -0.3405919545E+01  0.6413271931E+15  0.5131362387E+01  0.5950473057E-16 -0.3398204176E+01
  0.1200000000E+01  0.1000000000E+01  0.4000000000E+00  0.4578223341E+01  0.3164655324E-16 -0.3033627766E+01  0.6413271931E+15  0.4561438825E+01  0.3165324064E-16 -0.3029143232E+01
ZONE I=6, J=6, K=1, F=POINT
  0.2000000000E+01  0.1000000000E+01  0.0000000000E+00  0.2402304676E+01  0.7380118289E-19  0.2123405708E+02  0.6413271931E+15  0.2430151214E+01  0.9431483648E-19  0.2215514321E+02
  0.1953011065E+01  0.1000000000E+01  0.0000000000E+00  0.1291360886E+01 -0.3736061596E-16 -0.1373702239E+00  0.6413271931E+15  0.1294892868E+01 -0.3608622805E-16 -0.1505770206E+00
  0.1857046303E+01  0.1000000000E+01  0.0000000000E+00 -0.3071731602E+00 -0.1884248410E-16  0.1517457182E+00  0.6413271931E+15 -0.3083861293E+00 -0.1936210946E-16  0.1503589051E+00
  0.1742953697E+01  0.1000000000E+01  0.0000000000E+00  0.1337343587E+00  0.2262349594E-18 -0.3755954704E-01  0.6413271931E+15  0.1340965973E+00  0.1161194813E-18 -0.3718469147E-01
  0.1646988935E+01  0.1000000000E+01  0.0000000000E+00 -0.1281613532E+00  0.3383978096E-18  0.6069439212E-01  0.6413271931E+15 -0.1281113646E+00  0.3045745910E-18  0.5961433653E-01
  0.1600000000E+01  0.1000000000E+01  0.0000000000E+00  0.8762652954E-01 -0.9810453092E-18 -0.8394862760E-01  0.6413271931E+15  0.8670922684E-01 -0.1104287419E-17 -0.8278392206E-01
  0.2000000000E+01  0.1000000000E+01  0.4698893521E-01 -0.1186989342E-01  0.7453996345E-18  0.4848236460E+02  0.6413271931E+15 -0.5459268203E-01  0.6859953616E-18  0.4865691046E+02
  0.1953011065E+01  0.1000000000E+01  0.4698893521E-01  0.1096512650E+02  0.1376904774E-15  0.1470106932E+01  0.6413271931E+15  0.1095161667E+02  0.1364565578E-15  0.1486321713E+01
  0.1857046303E+01  0.1000000000E+01  0.4698893521E-01  0.1168165036E+02  0.2931305924E-15 -0.1881589668E+01  0.6413271931E+15  0.1168127119E+02  0.2932443912E-15 -0.1878313990E+01
  0.1742953697E+01  0.1000000000E+01  0.4698893521E-01  0.5803508904E+01 -0.3619663003E-16 -0.6560459179E+00  0.6413271931E+15  0.5805467756E+01 -0.3584760327E-16 -0.6533596896E+00
  0.1646988935E+01  0.1000000000E+01  0.4698893521E-01  0.4462575981E+01 -0.1215885912E-15 -0.6414908999E+00  0.6413271931E+15  0.4459824618E+01 -0.1216464049E-15 -0.6336642213E+00
  0.1600000000E+01  0.1000000000E+01  0.4698893521E-01  0.2820001115E+01 -0.8634613551E-16  0.2014964561E+00  0.6413271931E+15  0.2826548546E+01 -0.8610103145E-16  0.2023560283E+00
  0.2000000000E+01  0.1000000000E+01  0.1429536967E+00 -0.2814473496E+00  0.2721715389E-17  0.5050284534E+02  0.6413271931E+15 -0.2569301561E+00  0.2750455427E-17  0.5043917171E+02
  0.1953011065E+01  0.1000000000E+01  0.1429536967E+00  0.2799599886E+01 -0.5138127179E-15  0.1643256013E+02  0.6413271931E+15  0.2783905708E+01 -0.5138737088E-15  0.1646788673E+02
  0.1857046303E+01  0.1000000000E+01  0.1429536967E+00  0.1276163703E+02 -0.2572180297E-15 -0.3580652668E+01  0.6413271931E+15  0.1275500876E+02 -0.2570659343E-15 -0.3575065676E+01
  0.1742953697E+01  0.1000000000E+01  0.1429536967E+00  0.9984498631E+01 -0.1569559711E-16 -0.4138732460E+01  0.6413271931E+15  0.9982043868E+01 -0.1647431524E-16 -0.4139702592E+01
  0.1646988935E+01  0.1000000000E+01  0.1429536967E+00  0.9227634255E+01 -0.1589456252E-15 -0.2159585463E+01  0.6413271931E+15  0.9224647926E+01 -0.1587184049E-15 -0.2155847966E+01
  0.1600000000E+01  0.1000000000E+01  0.1429536967E+00  0.5821157628E+01 -0.2841799980E-15 -0.1901275732E+01  0.6413271931E+15  0.5845192873E+01 -0.2845352940E-15 -0.1902980089E+01
  0.2000000000E+01  0.1000000000E+01  0.2570463033E+00  0.1905018435E-01  0.1101910918E-17  0.4987230145E+02  0.6413271931E+15  0.1808300713E-01  0.1060888405E-17  0.4987691802E+02