TITLE = "Generated from ../MESH/Convergence_0000000000.hmesh and Convergence_0000004400.hsol"
VARIABLES = "x","y","z","veloT_x","veloT_y","veloT_z","slr_4","velo_x","velo_y","velo_z"
ZONE I=6, J=6, K=1, F=POINT
  0.4000000000E+00  0.1000000000E+01  0.0000000000E+00 -0.1053214143E-01  0.2843096747E-19  0.7994976211E-02  0.6527297319E+15 -0.1155797897E-01  0.2834880774E-19  0.7157923601E-02
  0.3530110648E+00  0.1000000000E+01  0.0000000000E+00 -0.3123180401E-04  0.9103342115E-20 -0.2628788478E-03  0.6527297319E+15 -0.1347605852E-02  0.1066070821E-19 -0.4697890592E-03
  0.2570463033E+00  0.1000000000E+01  0.0000000000E+00  0.1092906318E-02  0.1241711798E-20  0.2296295870E-02  0.6527297319E+15  0.9440611061E-04  0.1745623443E-20  0.2373675615E-02
  0.1429536967E+00  0.1000000000E+01  0.0000000000E+00  0.3321570061E-03  0.2735324575E-21 -0.1121513284E-02  0.6527297319E+15 -0.4745763167E-03  0.3863348924E-21 -0.1109262149E-02
  0.4698893521E-01  0.1000000000E+01  0.0000000000E+00  0.2857671860E-02 -0.2194653337E-20  0.1782917115E-02  0.6527297319E+15  0.2186980839E-02 -0.2082278217E-20  0.1848335152E-02
  0.0000000000E+00  0.1000000000E+01  0.0000000000E+00 -0.7413912456E-02  0.1291444482E-22  0.1923338835E-02  0.6527297319E+15 -0.7439779607E-02  0.1413332381E-22  0.2003895483E-02
  0.4000000000E+00  0.1000000000E+01  0.4698893521E-01  0.2692525938E+00  0.2972405436E-17 -0.4595298520E-01  0.6527297319E+15  0.2682020008E+00  0.2978699369E-17 -0.4444783234E-01
  0.3530110648E+00  0.1000000000E+01  0.4698893521E-01  0.1313943644E+00  0.2652467613E-17 -0.8763127819E-02  0.6527297319E+15  0.1289275294E+00  0.2677293331E-17 -0.6989115081E-02
  0.2570463033E+00  0.1000000000E+01  0.4698893521E-01  0.1027776492E+00  0.1061786778E-17 -0.2154753687E-01  0.6527297319E+15  0.1013646120E+00  0.1068510513E-17 -0.1835194537E-01
  0.1429536967E+00  0.1000000000E+01  0.4698893521E-01  0.7324165066E-02  0.2873307611E-18 -0.1428249607E-01  0.6527297319E+15  0.7653544381E-02  0.2898566871E-18 -0.1183078765E-01
  0.4698893521E-01  0.1000000000E+01  0.4698893521E-01  0.5487275179E-03  0.6426501040E-19 -0.1136868153E-01  0.6527297319E+15  0.8021227924E-03  0.6410257586E-19 -0.1090942365E-01
  0.0000000000E+00  0.1000000000E+01  0.4698893521E-01 -0.1799989517E-01  0.8988130522E-21  0.1318102825E-02  0.6527297319E+15 -0.1800978322E-01  0.9302529981E-21  0.2003630643E-02
  0.4000000000E+00  0.1000000000E+01  0.1429536967E+00  0.5987134044E+00  0.9695001207E-17 -0.1267662214E+00  0.6527297319E+15  0.5958943861E+00  0.9658548217E-17 -0.1386915146E+00
  0.3530110648E+00  0.1000000000E+01  0.1429536967E+00  0.3435922630E+00  0.6031465203E-17 -0.1657228859E+00  0.6527297319E+15  0.3377000673E+00  0.6098411546E-17 -0.1751655320E+00
  0.2570463033E+00  0.1000000000E+01  0.1429536967E+00  0.2417226484E+00  0.2417530670E-17 -0.1098653751E+00  0.6527297319E+15  0.2371503361E+00  0.2414666200E-17 -0.1130876023E+00
  0.1429536967E+00  0.1000000000E+01  0.1429536967E+00  0.3825172321E-01  0.8985036423E-18 -0.1204480319E+00  0.6527297319E+15  0.3932742429E-01  0.8992344940E-18 -0.1195742062E+00
  0.4698893521E-01  0.1000000000E+01  0.1429536967E+00 -0.5347910313E-02  0.2379958059E-18 -0.1326497323E-01  0.6527297319E+15 -0.3554677145E-02  0.2350332334E-18 -0.1275111329E-01
  0.0000000000E+00  0.1000000000E+01  0.1429536967E+00 -0.2146896277E-01 -0.6088679623E-22 -0.2560275579E-02  0.6527297319E+15 -0.2146233416E-01  0.1947273191E-21 -0.1672221262E-02
  0.4000000000E+00  0.1000000000E+01  0.2570463033E+00  0.6981632796E+00  0.3710113295E-17 -0.3959676272E+00  0.6527297319E+15  0.6869632416E+00  0.3692764611E-17 -0.4191450883E+00
  0.3530110648E+00  0.1000000000E+01  0.2570463033E+00  0.5229324193E+00  0.2548631897E-17 -0.4389576888E+00  0.6527297319E+15  0.5074373021E+00  0.2286504218E-17 -0.4574381675E+00
  0.2570463033E+00  0.1000000000E+01  0.2570463033E+00  0.3213125481E+00  0.2066116855E-17 -0.3096569238E+00  0.6527297319E+15  0.3083692053E+00  0.2068703258E-17 -0.3198556996E+00
  0.1429536967E+00  0.1000000000E+01  0.2570463033E+00  0.8984288863E-01  0.1543165953E-17 -0.2888091603E+00  0.6527297319E+15  0.8741350834E-01  0.1544797862E-17 -0.2918701859E+00
  0.4698893521E-01  0.1000000000E+01  0.2570463033E+00  0.8517945692E-02  0.1014409329E-17 -0.5355032878E-01  0.6527297319E+15  0.1050630871E-01  0.1005832894E-17 -0.5424169787E-01
  0.0000000000E+00  0.1000000000E+01  0.2570463033E+00 -0.1425452634E-01 -0.3959784411E-20 -0.2325114482E-02  0.6527297319E+15 -0.1420557548E-01 -0.4477952550E-20 -0.1782548587E-02
  0.4000000000E+00  0.1000000000E+01  0.3530110648E+00  0.7384245046E+00  0.4198306616E-17 -0.6765896098E+00  0.6527297319E+15  0.7190622758E+00  0.4214954850E-17 -0.6986641010E+00
  0.3530110648E+00  0.1000000000E+01  0.3530110648E+00  0.5485138765E+00  0.3721368298E-17 -0.6816441936E+00  0.6527297319E+15  0.5252568243E+00  0.3719729111E-17 -0.7010919159E+00
  0.2570463033E+00  0.1000000000E+01  0.3530110648E+00  0.3327385845E+00  0.2159024305E-17 -0.5207397868E+00  0.6527297319E+15  0.3126542363E+00  0.2341030832E-17 -0.5335106649E+00
  0.1429536967E+00  0.1000000000E+01  0.3530110648E+00  0.9219789426E-01  0.2088297806E-17 -0.4293704071E+00  0.6527297319E+15  0.8513921239E-01  0.2127942358E-17 -0.4340475347E+00
  0.4698893521E-01  0.1000000000E+01  0.3530110648E+00  0.9797776681E-02  0.6439494991E-18 -0.1158906541E+00  0.6527297319E+15  0.1072111980E-01  0.6550059016E-18 -0.1171556961E+00
  0.0000000000E+00  0.1000000000E+01  0.3530110648E+00 -0.1427623805E-01  0.5173818001E-20 -0.2705972798E-02  0.6527297319E+15 -0.1426288104E-01  0.4522288779E-20 -0.2214432124E-02
  0.4000000000E+00  0.1000000000E+01  0.4000000000E+00  0.7205280863E+00  0.6354138670E-17 -0.8173602025E+00  0.6527297319E+15  0.6991988749E+00  0.6346030263E-17 -0.8427790320E+00
  0.3530110648E+00  0.1000000000E+01  0.4000000000E+00  0.5781235298E+00  0.5519648461E-17 -0.8093126681E+00  0.6527297319E+15  0.5527092778E+00  0.5601046681E-17 -0.8343983256E+00
  0.2570463033E+00  0.1000000000E+01  0.4000000000E+00  0.3338492228E+00  0.2246711360E-17 -0.6266229682E+00  0.6527297319E+15  0.3096254398E+00  0.2141981035E-17 -0.6443896837E+00
  0.1429536967E+00  0.1000000000E+01  0.4000000000E+00  0.1013782365E+00  0.2190137870E-17 -0.5021393646E+00  0.6527297319E+15  0.9106911110E-01  0.2154899697E-17 -0.5078802860E+00
  0.4698893521E-01  0.1000000000E+01  0.4000000000E+00  0.5986745269E-02  0.6293652391E-18 -0.1450057188E+00  0.6527297319E+15  0.6235048164E-02  0.6303594676E-18 -0.1459607959E+00
  0.0000000000E+00  0.1000000000E+01  0.4000000000E+00 -0.6323356843E-02  0.7820121990E-20 -0.4041920384E-02  0.6527297319E+15 -0.6495707407E-02  0.8106879285E-20 -0.3426664632E-02
ZONE I=6, J=6, K=1, F=POINT
  0.8000000000E+00  0.1000000000E+01  0.0000000000E+00  0.1898801118E-01 -0.8461684180E-19 -0.1119316999E-01  0.6527297319E+15  0.1734790202E-01 -0.8646300015E-19 -0.1188838534E-01
  0.7530110648E+00  0.1000000000E+01  0.0000000000E+00  0.3337674982E-02  0.1097543849E-18  0.6182494427E-02  0.6527297319E+15  0.1812952116E-02  0.8026181828E-19  0.5958656143E-02
  0.6570463033E+00  0.1000000000E+01  0.0000000000E+00  0.1066591025E-02  0.4364347673E-19  0.4350788098E-03  0.6527297319E+15 -0.6485250249E-03  0.2053276440E-19  0.3399354622E-03
  0.5429536967E+00  0.1000000000E+01  0.0000000000E+00  0.2654434696E-02  0.7677316336E-19  0.7196288639E-02  0.6527297319E+15  0.1146175096E-02  0.3828789427E-19  0.7159607919E-02
  0.4469889352E+00  0.1000000000E+01  0.0000000000E+00  0.1979539984E-04  0.2326359994E-19  0.8775243254E-03  0.6527297319E+15 -0.1128664124E-02 -0.9092752360E-20  0.6706374382E-03
  0.4000000000E+00  0.1000000000E+01  0.0000000000E+00  0.1642516705E-01  0.3201989446E-19  0.7677547639E-02  0.6527297319E+15  0.1524565858E-01  0.3194151747E-19  0.6867536647E-02
  0.8000000000E+00  0.1000000000E+01  0.4698893521E-01  0.3330943625E+00 -0.2389898037E-16 -0.5678515923E-02  0.6527297319E+15  0.3307331436E+00 -0.2386863918E-16  0.6527594928E-02
  0.7530110648E+00  0.1000000000E+01  0.4698893521E-01  0.5263774037E+00 -0.2347563049E-16 -0.6390264703E-01  0.6527297319E+15  0.5260162436E+00 -0.2346302832E-16 -0.5385090535E-01
  0.6570463033E+00  0.1000000000E+01  0.4698893521E-01  0.3061670307E+00 -0.4658908115E-17 -0.3033866831E-01  0.6527297319E+15  0.3056753375E+00 -0.4660898265E-17 -0.2646206648E-01
  0.5429536967E+00  0.1000000000E+01  0.4698893521E-01  0.3357782293E+00  0.4309854833E-17 -0.1524943395E-01  0.6527297319E+15  0.3349899380E+00  0.4297540632E-17 -0.1449234836E-01
  0.4469889352E+00  0.1000000000E+01  0.4698893521E-01  0.2062377655E+00  0.3911008581E-17 -0.3245660781E-02  0.6527297319E+15  0.2063417801E+00  0.3910546161E-17 -0.2391051638E-02
  0.4000000000E+00  0.1000000000E+01  0.4698893521E-01  0.3111796473E+00  0.2731893098E-17 -0.4671077476E-01  0.6527297319E+15  0.3103550735E+00  0.2736526273E-17 -0.4519637252E-01
  0.8000000000E+00  0.1000000000E+01  0.1429536967E+00  0.1064046929E+01 -0.5425751046E-16 -0.3807455885E+00  0.6527297319E+15  0.1065753363E+01 -0.5419414150E-16 -0.3862546289E+00
  0.7530110648E+00  0.1000000000E+01  0.1429536967E+00  0.1354091002E+01 -0.3429724057E-16 -0.2340434206E+00  0.6527297319E+15  0.1360420051E+01 -0.3428990169E-16 -0.2424467066E+00
  0.6570463033E+00  0.1000000000E+01  0.1429536967E+00  0.9073337276E+00 -0.4011077153E-17 -0.2250086276E+00  0.6527297319E+15  0.9114276701E+00 -0.4183209802E-17 -0.2374570917E+00
  0.5429536967E+00  0.1000000000E+01  0.1429536967E+00  0.8310921691E+00  0.9301061575E-17 -0.7426079163E-01  0.6527297319E+15  0.8311166449E+00  0.9293085640E-17 -0.8857181383E-01
  0.4469889352E+00  0.1000000000E+01  0.1429536967E+00  0.5276873531E+00  0.9568824670E-17 -0.1504085040E+00  0.6527297319E+15  0.5262967621E+00  0.9642791292E-17 -0.1639935376E+00
  0.4000000000E+00  0.1000000000E+01  0.1429536967E+00  0.6504684200E+00  0.1040869244E-16 -0.1262123649E+00  0.6527297319E+15  0.6463931134E+00  0.1035676540E-16 -0.1381442759E+00
  0.8000000000E+00  0.1000000000E+01  0.2570463033E+00  0.2081879898E+01 -0.1414419788E-16 -0.9325862131E+00  0.6527297319E+15  0.2091194004E+01 -0.1413566967E-16 -0.9591757045E+00
  0.7530110648E+00  0.1000000000E+01  0.2570463033E+00  0.1947669747E+01 -0.1043094660E-16 -0.6779006525E+00  0.6527297319E+15  0.1957987128E+01 -0.1087447263E-16 -0.7059855491E+00
  0.6570463033E+00  0.1000000000E+01  0.2570463033E+00  0.1467380907E+01 -0.3984259694E-17 -0.6106386033E+00  0.6527297319E+15  0.1473279863E+01 -0.4133330537E-17 -0.6404137355E+00
  0.5429536967E+00  0.1000000000E+01  0.2570463033E+00  0.1111184026E+01  0.2393178673E-17 -0.3470825650E+00  0.6527297319E+15  0.1110614011E+01  0.2394214851E-17 -0.3775020143E+00
  0.4469889352E+00  0.1000000000E+01  0.2570463033E+00  0.7737165755E+00  0.3397338341E-17 -0.4460004047E+00  0.6527297319E+15  0.7676532307E+00  0.3067293404E-17 -0.4723242438E+00
  0.4000000000E+00  0.1000000000E+01  0.2570463033E+00  0.7289998804E+00  0.3735176908E-17 -0.3953118770E+00  0.6527297319E+15  0.7180199578E+00  0.3717173826E-17 -0.4185405236E+00
  0.8000000000E+00  0.1000000000E+01  0.3530110648E+00  0.2314654769E+01  0.6564796790E-18 -0.1429031526E+01  0.6527297319E+15  0.2327294753E+01  0.6635727146E-18 -0.1450813190E+01
  0.7530110648E+00  0.1000000000E+01  0.3530110648E+00  0.2201496528E+01  0.5635417017E-17 -0.1206338964E+01  0.6527297319E+15  0.2214458143E+01  0.6324929023E-17 -0.1228965493E+01
  0.6570463033E+00  0.1000000000E+01  0.3530110648E+00  0.1670986093E+01 -0.6311118759E-18 -0.1018273827E+01  0.6527297319E+15  0.1680561594E+01 -0.5607452215E-18 -0.1045360828E+01
  0.5429536967E+00  0.1000000000E+01  0.3530110648E+00  0.1233931159E+01 -0.4772097107E-18 -0.7021241133E+00  0.6527297319E+15  0.1232087541E+01 -0.9906417152E-19 -0.7333087840E+00
  0.4469889352E+00  0.1000000000E+01  0.3530110648E+00  0.8100106546E+00  0.3971344331E-17 -0.7280110499E+00  0.6527297319E+15  0.7961201686E+00  0.4167363001E-17 -0.7545490988E+00
  0.4000000000E+00  0.1000000000E+01  0.3530110648E+00  0.7716018342E+00  0.4175498569E-17 -0.6763805212E+00  0.6527297319E+15  0.7525240746E+00  0.4193022976E-17 -0.6984634671E+00
  0.8000000000E+00  0.1000000000E+01  0.4000000000E+00  0.2412521980E+01 -0.4917796587E-17 -0.1723695985E+01  0.6527297319E+15  0.2425585561E+01 -0.4922397754E-17 -0.1745862805E+01
  0.7530110648E+00  0.1000000000E+01  0.4000000000E+00  0.2170621416E+01 -0.1619425044E-17 -0.1440423552E+01  0.6527297319E+15  0.2184540244E+01 -0.1394994024E-17 -0.1462033074E+01
  0.6570463033E+00  0.1000000000E+01  0.4000000000E+00  0.1686196896E+01 -0.6586396013E-19 -0.1240850782E+01  0.6527297319E+15  0.1698398511E+01 -0.1911425760E-18 -0.1264553523E+01
  0.5429536967E+00  0.1000000000E+01  0.4000000000E+00  0.1221131037E+01  0.5790219570E-17 -0.9282697059E+00  0.6527297319E+15  0.1219917319E+01  0.5614674546E-17 -0.9571503241E+00
  0.4469889352E+00  0.1000000000E+01  0.4000000000E+00  0.8631591137E+00  0.6755491024E-17 -0.8952333649E+00  0.6527297319E+15  0.8457074066E+00  0.6409893120E-17 -0.9229171534E+00
  0.4000000000E+00  0.1000000000E+01  0.4000000000E+00  0.7325140419E+00  0.6373461459E-17 -0.8166329162E+00  0.6527297319E+15  0.7101128614E+00  0.6368317763E-17 -0.8420435393E+00
ZONE I=6, J=6, K=1, F=POINT
  0.1200000000E+01  0.1000000000E+01  0.0000000000E+00 -0.3159208018E-01  0.5735623638E-19  0.3694261793E-01  0.6527297319E+15 -0.3396670714E-01  0.5797794309E-19  0.3653558864E-01
  0.1153011065E+01  0.1000000000E+01  0.0000000000E+00 -0.4208831307E-02 -0.1807956314E-18 -0.9473616016E-02  0.6527297319E+15 -0.6676838822E-02 -0.2922361851E-18 -0.9501631253E-02
  0.1057046303E+01  0.1000000000E+01  0.0000000000E+00  0.3312420681E-02  0.4990071093E-19  0.5990279725E-02  0.6527297319E+15  0.1151711153E-02 -0.6921274113E-20  0.6025944243E-02
  0.9429536967E+00  0.1000000000E+01  0.0000000000E+00 -0.8542293890E-03  0.5243431402E-20 -0.8128645911E-02  0.6527297319E+15 -0.3036069919E-02  0.5488892155E-20 -0.8175972153E-02
  0.8469889352E+00  0.1000000000E+01  0.0000000000E+00  0.5004466638E-02 -0.2057851874E-19  0.5485150625E-02  0.6527297319E+15  0.2677291533E-02 -0.2016196994E-19  0.5309785504E-02
  0.8000000000E+00  0.1000000000E+01  0.0000000000E+00 -0.2586318743E-01 -0.9414039136E-19 -0.1066960284E-01  0.6527297319E+15 -0.2800459688E-01 -0.9626177174E-19 -0.1135622075E-01
  0.1200000000E+01  0.1000000000E+01  0.4698893521E-01  0.2198163525E+01 -0.4232569339E-16 -0.2200699822E+00  0.6527297319E+15  0.2193136841E+01 -0.4207564305E-16 -0.2008688653E+00
  0.1153011065E+01  0.1000000000E+01  0.4698893521E-01  0.1509266771E+01 -0.2658040864E-16 -0.7440760418E-01  0.6527297319E+15  0.1505564514E+01 -0.2647902228E-16 -0.5708741915E-01
  0.1057046303E+01  0.1000000000E+01  0.4698893521E-01  0.1370154996E+01 -0.1261350601E-16 -0.1085475315E+00  0.6527297319E+15  0.1367082172E+01 -0.1263256484E-16 -0.9646506944E-01
  0.9429536967E+00  0.1000000000E+01  0.4698893521E-01  0.7634571328E+00 -0.1519602212E-16 -0.9648681728E-01  0.6527297319E+15  0.7592458493E+00 -0.1506744554E-16 -0.8540691850E-01
  0.8469889352E+00  0.1000000000E+01  0.4698893521E-01  0.6621026349E+00 -0.2816033221E-16 -0.9313819297E-01  0.6527297319E+15  0.6584982609E+00 -0.2800875893E-16 -0.8054398967E-01
  0.8000000000E+00  0.1000000000E+01  0.4698893521E-01  0.2724142665E+00 -0.2320442123E-16 -0.3631599594E-02  0.6527297319E+15  0.2703433982E+00 -0.2318302279E-16  0.8529672149E-02
  0.1200000000E+01  0.1000000000E+01  0.1429536967E+00  0.5074389530E+01 -0.5892184987E-16 -0.6507448421E+00  0.6527297319E+15  0.5074992890E+01 -0.5880515655E-16 -0.6338187535E+00
  0.1153011065E+01  0.1000000000E+01  0.1429536967E+00  0.3619064671E+01 -0.6797603717E-16 -0.8569946088E+00  0.6527297319E+15  0.3622277807E+01 -0.6795031097E-16 -0.8418661466E+00
  0.1057046303E+01  0.1000000000E+01  0.1429536967E+00  0.3232141998E+01 -0.3963131646E-16 -0.6402091459E+00  0.6527297319E+15  0.3234450510E+01 -0.3963464623E-16 -0.6310036995E+00
  0.9429536967E+00  0.1000000000E+01  0.1429536967E+00  0.1977392314E+01 -0.3512981958E-16 -0.7470560941E+00  0.6527297319E+15  0.1974946351E+01 -0.3512232424E-16 -0.7442699726E+00
  0.8469889352E+00  0.1000000000E+01  0.1429536967E+00  0.1695184012E+01 -0.5092464923E-16 -0.4009885419E+00  0.6527297319E+15  0.1693838477E+01 -0.5088009631E-16 -0.4037519664E+00
  0.8000000000E+00  0.1000000000E+01  0.1429536967E+00  0.9806816423E+00 -0.5646353351E-16 -0.3823477929E+00  0.6527297319E+15  0.9836996577E+00 -0.5642350502E-16 -0.3878390145E+00
  0.1200000000E+01  0.1000000000E+01  0.2570463033E+00  0.5292540134E+01 -0.7203608120E-17 -0.1750682997E+01  0.6527297319E+15  0.5290834814E+01 -0.7161594848E-17 -0.1756183497E+01
  0.1153011065E+01  0.1000000000E+01  0.2570463033E+00  0.4761647181E+01 -0.4144082205E-16 -0.1996022751E+01  0.6527297319E+15  0.4766873630E+01 -0.4198497373E-16 -0.2002074132E+01
  0.1057046303E+01  0.1000000000E+01  0.2570463033E+00  0.3931919915E+01 -0.3344340843E-16 -0.1596058210E+01  0.6527297319E+15  0.3940455019E+01 -0.3343585163E-16 -0.1602695010E+01
  0.9429536967E+00  0.1000000000E+01  0.2570463033E+00  0.2977465060E+01 -0.3242267560E-16 -0.1637366952E+01  0.6527297319E+15  0.2984558387E+01 -0.3277139720E-16 -0.1651729110E+01
  0.8469889352E+00  0.1000000000E+01  0.2570463033E+00  0.2442108998E+01 -0.1575609489E-16 -0.1007717778E+01  0.6527297319E+15  0.2450384658E+01 -0.1580101279E-16 -0.1031110419E+01
  0.8000000000E+00  0.1000000000E+01  0.2570463033E+00  0.2043992948E+01 -0.1430541610E-16 -0.9351080657E+00  0.6527297319E+15  0.2053778322E+01 -0.1429448789E-16 -0.9613357449E+00
  0.1200000000E+01  0.1000000000E+01  0.3530110648E+00  0.5532355498E+01  0.3184433949E-16 -0.2888286491E+01  0.6527297319E+15  0.5533133031E+01  0.3187662737E-16 -0.2903174502E+01
  0.1153011065E+01  0.1000000000E+01  0.3530110648E+00  0.4815733766E+01  0.1160137662E-16 -0.2807777730E+01  0.6527297319E+15  0.4819334226E+01  0.1157013027E-16 -0.2822511470E+01
  0.1057046303E+01  0.1000000000E+01  0.3530110648E+00  0.4099591598E+01 -0.9230651230E-17 -0.2425214155E+01  0.6527297319E+15  0.4110054879E+01 -0.9050970093E-17 -0.2438641898E+01
  0.9429536967E+00  0.1000000000E+01  0.3530110648E+00  0.3179726801E+01 -0.1637225349E-16 -0.2214750859E+01  0.6527297319E+15  0.3193924427E+01 -0.1667340111E-16 -0.2232124913E+01
  0.8469889352E+00  0.1000000000E+01  0.3530110648E+00  0.2737020925E+01 -0.1970696656E-17 -0.1613809822E+01  0.6527297319E+15  0.2750443190E+01 -0.1429325725E-17 -0.1634715261E+01
  0.8000000000E+00  0.1000000000E+01  0.3530110648E+00  0.2267808458E+01  0.7089378323E-18 -0.1429301803E+01  0.6527297319E+15  0.2281421705E+01  0.7214989878E-18 -0.1451123140E+01
  0.1200000000E+01  0.1000000000E+01  0.4000000000E+00  0.5222513870E+01  0.3796148534E-16 -0.3206964956E+01  0.6527297319E+15  0.5223651234E+01  0.3797359984E-16 -0.3220029832E+01
  0.1153011065E+01  0.1000000000E+01  0.4000000000E+00  0.4870414504E+01  0.2883668863E-16 -0.3310484553E+01  0.6527297319E+15  0.4872923078E+01  0.2901839247E-16 -0.3324326336E+01
  0.1057046303E+01  0.1000000000E+01  0.4000000000E+00  0.4020754547E+01  0.2459901849E-17 -0.2797488570E+01  0.6527297319E+15  0.4031887692E+01  0.2514847563E-17 -0.2812396491E+01
  0.9429536967E+00  0.1000000000E+01  0.4000000000E+00  0.3231612160E+01 -0.1522059671E-16 -0.2561474313E+01  0.6527297319E+15  0.3247390018E+01 -0.1550447788E-16 -0.2579266207E+01
  0.8469889352E+00  0.1000000000E+01  0.4000000000E+00  0.2683867696E+01 -0.9370204240E-17 -0.1877160220E+01  0.6527297319E+15  0.2698299172E+01 -0.9283905941E-17 -0.1898030356E+01
  0.8000000000E+00  0.1000000000E+01  0.4000000000E+00  0.2407679178E+01 -0.4900448086E-17 -0.1727026009E+01  0.6527297319E+15  0.2421864166E+01 -0.4905265669E-17 -0.1748800738E+01
ZONE I=6, J=6, K=1, F=POINT
  0.1600000000E+01  0.1000000000E+01  0.0000000000E+00  0.1297289242E+00 -0.9153346612E-18 -0.7241898640E-01  0.6527297319E+15  0.1271143644E+00 -0.1035220304E-17 -0.7176298958E-01
  0.1553011065E+01  0.1000000000E+01  0.0000000000E+00  0.9368382114E-02 -0.1268934747E-17  0.4514721233E-01  0.6527297319E+15  0.7192537647E-02 -0.1188223604E-17  0.4507641714E-01
  0.1457046303E+01  0.1000000000E+01  0.0000000000E+00 -0.8072516364E-02 -0.6683605337E-19 -0.3242332511E-02  0.6527297319E+15 -0.1039287617E-01 -0.3399782786E-19 -0.3211900419E-02
  0.1342953697E+01  0.1000000000E+01  0.0000000000E+00  0.4693951479E-02  0.3687595098E-18  0.2992143470E-01  0.6527297319E+15  0.2421855402E-02  0.2446125211E-18  0.2978975946E-01
  0.1246988935E+01  0.1000000000E+01  0.0000000000E+00 -0.8124671878E-02  0.1193392095E-18 -0.8154986311E-02  0.6527297319E+15 -0.1016009485E-01  0.1180022115E-18 -0.8208377679E-02
  0.1200000000E+01  0.1000000000E+01  0.0000000000E+00  0.5785321696E-01  0.6160403231E-19  0.3699246265E-01  0.6527297319E+15  0.5583896852E-01  0.6193209032E-19  0.3657520410E-01
  0.1600000000E+01  0.1000000000E+01  0.4698893521E-01  0.3001761044E+01 -0.8835785412E-16  0.2318313225E+00  0.6527297319E+15  0.2992736492E+01 -0.8815644683E-16  0.2307287357E+00
  0.1553011065E+01  0.1000000000E+01  0.4698893521E-01  0.3491343825E+01 -0.4377950672E-16 -0.2742509930E+00  0.6527297319E+15  0.3483440265E+01 -0.4401919022E-16 -0.2742663725E+00
  0.1457046303E+01  0.1000000000E+01  0.4698893521E-01  0.2516066381E+01 -0.4660305254E-17 -0.9360413946E-01  0.6527297319E+15  0.2508346138E+01 -0.4413286595E-17 -0.8962583807E-01
  0.1342953697E+01  0.1000000000E+01  0.4698893521E-01  0.2507637029E+01  0.2865300354E-16 -0.7378329552E-01  0.6527297319E+15  0.2499069541E+01  0.2858390969E-16 -0.6280785981E-01
  0.1246988935E+01  0.1000000000E+01  0.4698893521E-01  0.1930583205E+01 -0.6917489927E-17 -0.4475631663E-01  0.6527297319E+15  0.1923332491E+01 -0.7232976764E-17 -0.2720741200E-01
  0.1200000000E+01  0.1000000000E+01  0.4698893521E-01  0.2296431011E+01 -0.4653774377E-16 -0.2257567501E+00  0.6527297319E+15  0.2289996466E+01 -0.4628532163E-16 -0.2061767787E+00
  0.1600000000E+01  0.1000000000E+01  0.1429536967E+00  0.6342815128E+01 -0.2657642079E-15 -0.1811684651E+01  0.6527297319E+15  0.6316553735E+01 -0.2663172995E-15 -0.1816402910E+01
  0.1553011065E+01  0.1000000000E+01  0.1429536967E+00  0.8029599866E+01 -0.1428636780E-15 -0.9786117997E+00  0.6527297319E+15  0.8017400052E+01 -0.1425985964E-15 -0.9819864253E+00
  0.1457046303E+01  0.1000000000E+01  0.1429536967E+00  0.5953739444E+01  0.3297778739E-16 -0.9631143870E+00  0.6527297319E+15  0.5940302057E+01  0.3194853247E-16 -0.9609303376E+00
  0.1342953697E+01  0.1000000000E+01  0.1429536967E+00  0.5893527714E+01  0.1010596181E-15 -0.2390594936E+00  0.6527297319E+15  0.5877043508E+01  0.1004812213E-15 -0.2281781044E+00
  0.1246988935E+01  0.1000000000E+01  0.1429536967E+00  0.4522988321E+01  0.2587764333E-16 -0.7799310610E+00  0.6527297319E+15  0.4511515886E+01  0.2682615757E-16 -0.7630315333E+00
  0.1200000000E+01  0.1000000000E+01  0.1429536967E+00  0.5240606157E+01 -0.6308063109E-16 -0.6453577574E+00  0.6527297319E+15  0.5230345468E+01 -0.6284420149E-16 -0.6291102289E+00
  0.1600000000E+01  0.1000000000E+01  0.2570463033E+00  0.1121001559E+02  0.1022945782E-15 -0.3710783640E+01  0.6527297319E+15  0.1120408980E+02  0.1021965774E-15 -0.3731759372E+01
  0.1553011065E+01  0.1000000000E+01  0.2570463033E+00  0.1011682545E+02  0.1257207153E-15 -0.2621389303E+01  0.6527297319E+15  0.1010328439E+02  0.1253733646E-15 -0.2635607732E+01
  0.1457046303E+01  0.1000000000E+01  0.2570463033E+00  0.8707255327E+01  0.1875096243E-15 -0.2472389889E+01  0.6527297319E+15  0.8686906325E+01  0.1862398235E-15 -0.2482546698E+01
  0.1342953697E+01  0.1000000000E+01  0.2570463033E+00  0.7031510190E+01  0.1341001211E-15 -0.1285490602E+01  0.6527297319E+15  0.7011118931E+01  0.1329272987E-15 -0.1290883015E+01
  0.1246988935E+01  0.1000000000E+01  0.2570463033E+00  0.5765971690E+01  0.4276029810E-16 -0.1988535410E+01  0.6527297319E+15  0.5754573344E+01  0.4212305767E-16 -0.1992934557E+01
  0.1200000000E+01  0.1000000000E+01  0.2570463033E+00  0.5332451536E+01 -0.7497524182E-17 -0.1741306593E+01  0.6527297319E+15  0.5330700801E+01 -0.7456016054E-17 -0.1749455123E+01
  0.1600000000E+01  0.1000000000E+01  0.3530110648E+00  0.9630181101E+01  0.2028999377E-15 -0.4291788755E+01  0.6527297319E+15  0.9608320423E+01  0.2028841153E-15 -0.4309606618E+01
  0.1553011065E+01  0.1000000000E+01  0.3530110648E+00  0.9783868375E+01  0.2089418185E-15 -0.4204799394E+01  0.6527297319E+15  0.9765729588E+01  0.2087917149E-15 -0.4220918313E+01
  0.1457046303E+01  0.1000000000E+01  0.3530110648E+00  0.8505345345E+01  0.2012336921E-15 -0.3734432075E+01  0.6527297319E+15  0.8482605037E+01  0.1999660435E-15 -0.3749314027E+01
  0.1342953697E+01  0.1000000000E+01  0.3530110648E+00  0.7157636489E+01  0.1515316711E-15 -0.2846322529E+01  0.6527297319E+15  0.7135912713E+01  0.1509817939E-15 -0.2860425723E+01
  0.1246988935E+01  0.1000000000E+01  0.3530110648E+00  0.5721124162E+01  0.6397232932E-16 -0.2961920854E+01  0.6527297319E+15  0.5711875293E+01  0.6448858989E-16 -0.2975863139E+01
  0.1200000000E+01  0.1000000000E+01  0.3530110648E+00  0.5609286185E+01  0.3195601830E-16 -0.2888754013E+01  0.6527297319E+15  0.5606636059E+01  0.3194804546E-16 -0.2903311452E+01
  0.1600000000E+01  0.1000000000E+01  0.4000000000E+00  0.9776770053E+01  0.2043904805E-15 -0.5059160493E+01  0.6527297319E+15  0.9756693156E+01  0.2043056550E-15 -0.5071131659E+01
  0.1553011065E+01  0.1000000000E+01  0.4000000000E+00  0.9070128683E+01  0.2207264381E-15 -0.4283273800E+01  0.6527297319E+15  0.9052819867E+01  0.2211255664E-15 -0.4292965552E+01
  0.1457046303E+01  0.1000000000E+01  0.4000000000E+00  0.8360310884E+01  0.1930242251E-15 -0.4321299093E+01  0.6527297319E+15  0.8337049455E+01  0.1931122668E-15 -0.4330248180E+01
  0.1342953697E+01  0.1000000000E+01  0.4000000000E+00  0.6864807983E+01  0.1599675528E-15 -0.3281290914E+01  0.6527297319E+15  0.6844657442E+01  0.1586558085E-15 -0.3294459815E+01
  0.1246988935E+01  0.1000000000E+01  0.4000000000E+00  0.5797803954E+01  0.6504302230E-16 -0.3547282437E+01  0.6527297319E+15  0.5787920742E+01  0.6530073230E-16 -0.3559844870E+01
  0.1200000000E+01  0.1000000000E+01  0.4000000000E+00  0.5195968615E+01  0.3822938989E-16 -0.3195041576E+01  0.6527297319E+15  0.5198439461E+01  0.3821609653E-16 -0.3210721527E+01
ZONE I=6, J=6, K=1, F=POINT
  0.2000000000E+01  0.1000000000E+01  0.0000000000E+00  0.2402041030E+01  0.7351075159E-19  0.2123389097E+02  0.6527297318E+15  0.2429749773E+01  0.9385607933E-19  0.2215487988E+02
  0.1953011065E+01  0.1000000000E+01  0.0000000000E+00  0.1290609261E+01 -0.3732114049E-16 -0.1375776882E+00  0.6527297319E+15  0.1293549775E+01 -0.3604013623E-16 -0.1508952485E+00
  0.1857046303E+01  0.1000000000E+01  0.0000000000E+00 -0.3081167793E+00 -0.1888921474E-16  0.1519485879E+00  0.6527297319E+15 -0.3102220057E+00 -0.1946076435E-16  0.1505220800E+00
  0.1742953697E+01  0.1000000000E+01  0.0000000000E+00  0.1332626367E+00  0.2173335029E-18 -0.3736891590E-01  0.6527297319E+15  0.1322286517E+00  0.9894911977E-19 -0.3710282246E-01
  0.1646988935E+01  0.1000000000E+01  0.0000000000E+00 -0.1281695501E+00  0.3268110759E-18  0.6050915084E-01  0.6527297319E+15 -0.1297985408E+00  0.2994971964E-18  0.5966413028E-01
  0.1600000000E+01  0.1000000000E+01  0.0000000000E+00  0.8786056842E-01 -0.9941493176E-18 -0.8451394213E-01  0.6527297319E+15  0.8545698390E-01 -0.1115749716E-17 -0.8249294278E-01
  0.2000000000E+01  0.1000000000E+01  0.4698893521E-01 -0.1244412560E-01  0.7473042782E-18  0.4848148739E+02  0.6527297319E+15 -0.5536247844E-01  0.6852032987E-18  0.4865530408E+02
  0.1953011065E+01  0.1000000000E+01  0.4698893521E-01  0.1095873900E+02  0.1362846344E-15  0.1464201900E+01  0.6527297319E+15  0.1094167661E+02  0.1350272161E-15  0.1476709276E+01
  0.1857046303E+01  0.1000000000E+01  0.4698893521E-01  0.1164084845E+02  0.2890335080E-15 -0.1889853642E+01  0.6527297319E+15  0.1163617936E+02  0.2888495980E-15 -0.1889847144E+01
  0.1742953697E+01  0.1000000000E+01  0.4698893521E-01  0.5759799878E+01 -0.3996673512E-16 -0.6437782272E+00  0.6527297319E+15  0.5757998300E+01 -0.3960515472E-16 -0.6466811396E+00
  0.1646988935E+01  0.1000000000E+01  0.4698893521E-01  0.4465389832E+01 -0.1219177790E-15 -0.6240932150E+00  0.6527297319E+15  0.4457585982E+01 -0.1217027508E-15 -0.6247482585E+00
  0.1600000000E+01  0.1000000000E+01  0.4698893521E-01  0.2838317664E+01 -0.8552041908E-16  0.2176444306E+00  0.6527297319E+15  0.2838716179E+01 -0.8514210271E-16  0.2112447188E+00
  0.2000000000E+01  0.1000000000E+01  0.1429536967E+00 -0.2818558236E+00  0.2728070973E-17  0.5050178664E+02  0.6527297319E+15 -0.2573733565E+00  0.2761400730E-17  0.5043733335E+02
  0.1953011065E+01  0.1000000000E+01  0.1429536967E+00  0.2789250091E+01 -0.5130416292E-15  0.1639056620E+02  0.6527297319E+15  0.2770111628E+01 -0.5134144341E-15  0.1642129254E+02
  0.1857046303E+01  0.1000000000E+01  0.1429536967E+00  0.1271638715E+02 -0.2606571982E-15 -0.3614255583E+01  0.6527297319E+15  0.1270602222E+02 -0.2602699027E-15 -0.3614124096E+01
  0.1742953697E+01  0.1000000000E+01  0.1429536967E+00  0.9980393005E+01 -0.2596050519E-16 -0.4073448868E+01  0.6527297319E+15  0.9976941551E+01 -0.2681310802E-16 -0.4081457015E+01
  0.1646988935E+01  0.1000000000E+01  0.1429536967E+00  0.9324534277E+01 -0.1597548913E-15 -0.2065722692E+01  0.6527297319E+15  0.9317271306E+01 -0.1595178154E-15 -0.2069889261E+01
  0.1600000000E+01  0.1000000000E+01  0.1429536967E+00  0.5971567214E+01 -0.2823176529E-15 -0.1811758310E+01  0.6527297319E+15  0.5985255248E+01 -0.2832539955E-15 -0.1821032456E+01
  0.2000000000E+01  0.1000000000E+01  0.2570463033E+00  0.1910095811E-01  0.1118083031E-17  0.4987159703E+02  0.6527297319E+15  0.1807612189E-01  0.1081662468E-17  0.4987529137E+02