TITLE = "Generated from ../MESH/Convergence_0000000000.hmesh and Convergence_0000007400.hsol"
VARIABLES = "x","y","z","veloT_x","veloT_y","veloT_z","slr_4","velo_x","velo_y","velo_z"
ZONE I=6, J=6, K=1, F=POINT
  0.4000000000E+00  0.1000000000E+01  0.0000000000E+00 -0.1009320350E-01  0.3080848190E-19  0.6810149689E-02  0.5643451923E+15 -0.1776959836E-01  0.2662521577E-19  0.7342675450E-02
  0.3530110648E+00  0.1000000000E+01  0.0000000000E+00 -0.5440249204E-03  0.9298312306E-20 -0.6162017877E-03  0.5643451923E+15 -0.7958511433E-02  0.1187179627E-19 -0.4082946336E-03
  0.2570463033E+00  0.1000000000E+01  0.0000000000E+00  0.4692620553E-04  0.1918107913E-20  0.2244026332E-02  0.5643451923E+15 -0.5711284118E-02  0.2880286068E-20  0.2453776795E-02
  0.1429536967E+00  0.1000000000E+01  0.0000000000E+00 -0.1600300228E-02  0.3432765098E-21 -0.9752941021E-03  0.5643451923E+15 -0.6809368238E-02  0.8233010691E-21 -0.1050960109E-02
  0.4698893521E-01  0.1000000000E+01  0.0000000000E+00  0.1084123893E-02 -0.1984029690E-20  0.1838986378E-02  0.5643451923E+15 -0.2897409469E-02 -0.2560266131E-20  0.2601748109E-02
  0.0000000000E+00  0.1000000000E+01  0.0000000000E+00 -0.7412136128E-02  0.6160609829E-23  0.2062996644E-02  0.5643451923E+15 -0.8037895174E-02  0.1786338765E-22  0.2639454765E-02
  0.4000000000E+00  0.1000000000E+01  0.4698893521E-01  0.2954121453E+00  0.3317291226E-17 -0.6736008197E-01  0.5643451923E+15  0.2708201188E+00  0.3458381529E-17 -0.1028680288E+00
  0.3530110648E+00  0.1000000000E+01  0.4698893521E-01  0.1463454480E+00  0.2968463287E-17 -0.2993254788E-01  0.5643451923E+15  0.1224529253E+00  0.3256119458E-17 -0.5814950369E-01
  0.2570463033E+00  0.1000000000E+01  0.4698893521E-01  0.1088551346E+00  0.1308474582E-17 -0.3486229591E-01  0.5643451923E+15  0.8830981141E-01  0.1311257354E-17 -0.5130811902E-01
  0.1429536967E+00  0.1000000000E+01  0.4698893521E-01  0.1102971540E-01  0.4410284238E-18 -0.2505553427E-01  0.5643451923E+15 -0.9851011383E-02  0.3848618314E-18 -0.2345202073E-01
  0.4698893521E-01  0.1000000000E+01  0.4698893521E-01  0.3060093782E-02  0.1183295075E-18 -0.1793184628E-01  0.5643451923E+15 -0.1163257946E-01  0.9979687664E-19 -0.5860322274E-02
  0.0000000000E+00  0.1000000000E+01  0.4698893521E-01 -0.1809747787E-01  0.8073118713E-21  0.2943620169E-02  0.5643451923E+15 -0.1867888015E-01  0.1115291317E-20  0.6850875781E-02
  0.4000000000E+00  0.1000000000E+01  0.1429536967E+00  0.6678639772E+00  0.1111024824E-16 -0.1653068807E+00  0.5643451923E+15  0.6251326310E+00  0.1052404678E-16 -0.2203000745E+00
  0.3530110648E+00  0.1000000000E+01  0.1429536967E+00  0.3805884630E+00  0.7131255098E-17 -0.1993962448E+00  0.5643451923E+15  0.3413226856E+00  0.7474712587E-17 -0.2467347013E+00
  0.2570463033E+00  0.1000000000E+01  0.1429536967E+00  0.2571249396E+00  0.3157299786E-17 -0.1305687183E+00  0.5643451923E+15  0.2176940291E+00  0.3129113064E-17 -0.1588742241E+00
  0.1429536967E+00  0.1000000000E+01  0.1429536967E+00  0.4329843977E-01  0.1307779008E-17 -0.1317191154E+00  0.5643451923E+15  0.3456671726E-02  0.1305329274E-17 -0.1349068519E+00
  0.4698893521E-01  0.1000000000E+01  0.1429536967E+00 -0.1067815145E-01  0.4019299088E-18 -0.1655330976E-01  0.5643451923E+15 -0.3235552132E-01  0.3478184779E-18 -0.4479042490E-02
  0.0000000000E+00  0.1000000000E+01  0.1429536967E+00 -0.2166466632E-01 -0.7685833710E-21  0.6039294872E-04  0.5643451923E+15 -0.2131494370E-01  0.8820587302E-21  0.4107745206E-02
  0.4000000000E+00  0.1000000000E+01  0.2570463033E+00  0.8444476057E+00  0.5438276246E-17 -0.4802883749E+00  0.5643451923E+15  0.7771452625E+00  0.5376687448E-17 -0.5320313769E+00
  0.3530110648E+00  0.1000000000E+01  0.2570463033E+00  0.6126752957E+00  0.3907742855E-17 -0.5168894858E+00  0.5643451923E+15  0.5520365382E+00  0.3349693229E-17 -0.5557836079E+00
  0.2570463033E+00  0.1000000000E+01  0.2570463033E+00  0.3649942923E+00  0.3075765812E-17 -0.3619057555E+00  0.5643451923E+15  0.3036542548E+00  0.3079749615E-17 -0.3851116576E+00
  0.1429536967E+00  0.1000000000E+01  0.2570463033E+00  0.1004013997E+00  0.2091855587E-17 -0.3092028443E+00  0.5643451923E+15  0.3937228250E-01  0.2096995755E-17 -0.3128128301E+00
  0.4698893521E-01  0.1000000000E+01  0.2570463033E+00 -0.3267672256E-02  0.1208292115E-17 -0.5399944982E-01  0.5643451923E+15 -0.3523512253E-01  0.1321911911E-17 -0.4528651761E-01
  0.0000000000E+00  0.1000000000E+01  0.2570463033E+00 -0.1446473549E-01 -0.3770071677E-20  0.1163957352E-02  0.5643451923E+15 -0.1425352364E-01 -0.5805778914E-20  0.3276218463E-02
  0.4000000000E+00  0.1000000000E+01  0.3530110648E+00  0.9686210539E+00  0.5526852164E-17 -0.8682159616E+00  0.5643451923E+15  0.8570326196E+00  0.5613046354E-17 -0.9077274048E+00
  0.3530110648E+00  0.1000000000E+01  0.3530110648E+00  0.6890188579E+00  0.4857110350E-17 -0.8534026727E+00  0.5643451923E+15  0.6088397927E+00  0.4865922651E-17 -0.8798107019E+00
  0.2570463033E+00  0.1000000000E+01  0.3530110648E+00  0.3954827559E+00  0.3308156236E-17 -0.6344078677E+00  0.5643451923E+15  0.3216121688E+00  0.3535846074E-17 -0.6505555875E+00
  0.1429536967E+00  0.1000000000E+01  0.3530110648E+00  0.1008589975E+00  0.2564453490E-17 -0.4764428287E+00  0.5643451923E+15  0.2426947819E-01  0.2556767367E-17 -0.4763180691E+00
  0.4698893521E-01  0.1000000000E+01  0.3530110648E+00 -0.1167077019E-01  0.7341935090E-18 -0.1195886356E+00  0.5643451923E+15 -0.4819282035E-01  0.6502996847E-18 -0.1102848026E+00
  0.0000000000E+00  0.1000000000E+01  0.3530110648E+00 -0.1459720499E-01  0.4786477644E-20  0.2581532625E-02  0.5643451923E+15 -0.1437462003E-01  0.4130555406E-20  0.3365463895E-02
  0.4000000000E+00  0.1000000000E+01  0.4000000000E+00  0.9722838544E+00  0.7234386868E-17 -0.1094098707E+01  0.5643451923E+15  0.8493411299E+00  0.7214876383E-17 -0.1112731839E+01
  0.3530110648E+00  0.1000000000E+01  0.4000000000E+00  0.7317225096E+00  0.6325429540E-17 -0.1039848915E+01  0.5643451923E+15  0.6466667354E+00  0.6446988284E-17 -0.1059726893E+01
  0.2570463033E+00  0.1000000000E+01  0.4000000000E+00  0.3999453430E+00  0.2395806771E-17 -0.7751821358E+00  0.5643451923E+15  0.3212820761E+00  0.2251891175E-17 -0.7889733977E+00
  0.1429536967E+00  0.1000000000E+01  0.4000000000E+00  0.1045899813E+00  0.2182333533E-17 -0.5632459443E+00  0.5643451923E+15  0.2215160231E-01  0.2208921000E-17 -0.5655934858E+00
  0.4698893521E-01  0.1000000000E+01  0.4000000000E+00 -0.2230427051E-01  0.6337586996E-18 -0.1494396824E+00  0.5643451923E+15 -0.6073575363E-01  0.6185793777E-18 -0.1442585752E+00
  0.0000000000E+00  0.1000000000E+01  0.4000000000E+00 -0.6834427525E-02  0.8516741652E-20  0.2071243979E-02  0.5643451923E+15 -0.6849619937E-02  0.9571241162E-20  0.1327971632E-02
ZONE I=6, J=6, K=1, F=POINT
  0.8000000000E+00  0.1000000000E+01  0.0000000000E+00  0.2546656762E-01 -0.7564732838E-19 -0.1181530453E-01  0.5643451923E+15  0.9236711290E-02 -0.8271616107E-19 -0.1157866534E-01
  0.7530110648E+00  0.1000000000E+01  0.0000000000E+00  0.8423501291E-02  0.2383591254E-18  0.5743188428E-02  0.5643451923E+15 -0.6741426309E-02 -0.1035708823E-18  0.6058224311E-02
  0.6570463033E+00  0.1000000000E+01  0.0000000000E+00  0.4048133633E-02  0.7798022700E-19  0.9653244306E-04  0.5643451923E+15 -0.9045276215E-02 -0.9007486182E-19  0.4845738058E-03
  0.5429536967E+00  0.1000000000E+01  0.0000000000E+00  0.4024994781E-02  0.1071288291E-18  0.6717137176E-02  0.5643451923E+15 -0.6712617125E-02 -0.1686344122E-18  0.7145149565E-02
  0.4469889352E+00  0.1000000000E+01  0.0000000000E+00  0.3391519271E-03  0.3069397614E-19  0.2478276035E-03  0.5643451923E+15 -0.8380101973E-02 -0.2331400608E-18  0.7397714612E-03
  0.4000000000E+00  0.1000000000E+01  0.0000000000E+00  0.1649513131E-01  0.3445248853E-19  0.6488306864E-02  0.5643451923E+15  0.8808065225E-02  0.3048765661E-19  0.7049060193E-02
  0.8000000000E+00  0.1000000000E+01  0.4698893521E-01  0.4556607802E+00 -0.2305616680E-16 -0.1067481913E-01  0.5643451923E+15  0.4231500799E+00 -0.2268380340E-16 -0.6546219240E-01
  0.7530110648E+00  0.1000000000E+01  0.4698893521E-01  0.6347427621E+00 -0.2401517934E-16 -0.7001641645E-01  0.5643451923E+15  0.6037021726E+00 -0.2216972077E-16 -0.1250748543E+00
  0.6570463033E+00  0.1000000000E+01  0.4698893521E-01  0.3862845595E+00 -0.3460636688E-17 -0.3475332783E-01  0.5643451923E+15  0.3586217200E+00 -0.3885450576E-17 -0.9281779805E-01
  0.5429536967E+00  0.1000000000E+01  0.4698893521E-01  0.3904809312E+00  0.5252433695E-17 -0.2233795678E-01  0.5643451923E+15  0.3637880072E+00  0.4763010563E-17 -0.7953553843E-01
  0.4469889352E+00  0.1000000000E+01  0.4698893521E-01  0.2431474682E+00  0.4278815138E-17 -0.2099387195E-01  0.5643451923E+15  0.2164259224E+00  0.4480767313E-17 -0.6554116358E-01
  0.4000000000E+00  0.1000000000E+01  0.4698893521E-01  0.3375937817E+00  0.3072919577E-17 -0.6812877678E-01  0.5643451923E+15  0.3126981425E+00  0.3217446138E-17 -0.1036166985E+00
  0.8000000000E+00  0.1000000000E+01  0.1429536967E+00  0.1377805146E+01 -0.4942757559E-16 -0.4082884482E+00  0.5643451923E+15  0.1344202887E+01 -0.5035915217E-16 -0.4988608945E+00
  0.7530110648E+00  0.1000000000E+01  0.1429536967E+00  0.1630321891E+01 -0.3120883047E-16 -0.2638534440E+00  0.5643451923E+15  0.1599206878E+01 -0.3040438730E-16 -0.3537479954E+00
  0.6570463033E+00  0.1000000000E+01  0.1429536967E+00  0.1114713403E+01 -0.2521386293E-17 -0.2570277776E+00  0.5643451923E+15  0.1084071784E+01 -0.1325252168E-17 -0.3412636092E+00
  0.5429536967E+00  0.1000000000E+01  0.1429536967E+00  0.9778245567E+00  0.1194955253E-16 -0.1093132390E+00  0.5643451923E+15  0.9417737290E+00  0.1087118487E-16 -0.1807103829E+00
  0.4469889352E+00  0.1000000000E+01  0.1429536967E+00  0.6248157075E+00  0.1072811406E-16 -0.1903532795E+00  0.5643451923E+15  0.5833316139E+00  0.1131596723E-16 -0.2512446905E+00
  0.4000000000E+00  0.1000000000E+01  0.1429536967E+00  0.7185843050E+00  0.1181923630E-16 -0.1647484258E+00  0.5643451923E+15  0.6762410506E+00  0.1123420699E-16 -0.2197569537E+00
  0.8000000000E+00  0.1000000000E+01  0.2570463033E+00  0.2624087907E+01 -0.8866161240E-17 -0.1070081060E+01  0.5643451923E+15  0.2589234354E+01 -0.8939768280E-17 -0.1171344372E+01
  0.7530110648E+00  0.1000000000E+01  0.2570463033E+00  0.2426639992E+01 -0.5657828495E-17 -0.8130828414E+00  0.5643451923E+15  0.2392245088E+01 -0.6902208344E-17 -0.9128487153E+00
  0.6570463033E+00  0.1000000000E+01  0.2570463033E+00  0.1827621118E+01 -0.1184327938E-17 -0.7251962453E+00  0.5643451923E+15  0.1791337313E+01 -0.1523290805E-18 -0.8281837485E+00
  0.5429536967E+00  0.1000000000E+01  0.2570463033E+00  0.1377253163E+01  0.5561921462E-17 -0.4281942847E+00  0.5643451923E+15  0.1325966230E+01  0.4728593337E-17 -0.5308385850E+00
  0.4469889352E+00  0.1000000000E+01  0.2570463033E+00  0.9717113016E+00  0.5512147974E-17 -0.5266629047E+00  0.5643451923E+15  0.9054321582E+00  0.4650944752E-17 -0.5983987617E+00
  0.4000000000E+00  0.1000000000E+01  0.2570463033E+00  0.8754437261E+00  0.5470203074E-17 -0.4796068142E+00  0.5643451923E+15  0.8080732732E+00  0.5399884411E-17 -0.5314095236E+00
  0.8000000000E+00  0.1000000000E+01  0.3530110648E+00  0.3036887582E+01  0.4247635972E-17 -0.1744133094E+01  0.5643451923E+15  0.3001649663E+01  0.4322760840E-17 -0.1835833990E+01
  0.7530110648E+00  0.1000000000E+01  0.3530110648E+00  0.2839901636E+01  0.1058575517E-16 -0.1521428302E+01  0.5643451923E+15  0.2803346344E+01  0.8481274554E-17 -0.1610607810E+01
  0.6570463033E+00  0.1000000000E+01  0.3530110648E+00  0.2133241328E+01  0.2207854414E-17 -0.1303523561E+01  0.5643451923E+15  0.2119895578E+01  0.4172585765E-17 -0.1409129346E+01
  0.5429536967E+00  0.1000000000E+01  0.3530110648E+00  0.1592007454E+01 -0.1238588815E-17 -0.9230177171E+00  0.5643451923E+15  0.1525082415E+01  0.4006018809E-17 -0.1054779334E+01
  0.4469889352E+00  0.1000000000E+01  0.3530110648E+00  0.1115590933E+01  0.5964560348E-17 -0.9283732865E+00  0.5643451923E+15  0.9819775070E+00  0.6265864767E-17 -0.1002477948E+01
  0.4000000000E+00  0.1000000000E+01  0.3530110648E+00  0.1002025002E+01  0.5487608127E-17 -0.8679738979E+00  0.5643451923E+15  0.8901604696E+00  0.5582681938E-17 -0.9075393274E+00
  0.8000000000E+00  0.1000000000E+01  0.4000000000E+00  0.3216572093E+01 -0.3371846178E-17 -0.2147745872E+01  0.5643451923E+15  0.3184580881E+01 -0.3380735375E-17 -0.2205417865E+01
  0.7530110648E+00  0.1000000000E+01  0.4000000000E+00  0.2886552038E+01  0.4923675893E-18 -0.1874152440E+01  0.5643451923E+15  0.2845351665E+01  0.4685727462E-18 -0.1926953282E+01
  0.6570463033E+00  0.1000000000E+01  0.4000000000E+00  0.2196710766E+01  0.1011291912E-17 -0.1673217380E+01  0.5643451923E+15  0.2200661158E+01  0.5111830681E-18 -0.1731149528E+01
  0.5429536967E+00  0.1000000000E+01  0.4000000000E+00  0.1616099535E+01  0.7171914152E-17 -0.1306886530E+01  0.5643451923E+15  0.1543035861E+01  0.4846227813E-17 -0.1392638669E+01
  0.4469889352E+00  0.1000000000E+01  0.4000000000E+00  0.1206062612E+01  0.1063092418E-16 -0.1214074559E+01  0.5643451923E+15  0.1033500025E+01  0.6934395152E-17 -0.1251780416E+01
  0.4000000000E+00  0.1000000000E+01  0.4000000000E+00  0.9826347080E+00  0.7238016129E-17 -0.1093190282E+01  0.5643451923E+15  0.8603888664E+00  0.7232267725E-17 -0.1112027745E+01
ZONE I=6, J=6, K=1, F=POINT
  0.1200000000E+01  0.1000000000E+01  0.0000000000E+00 -0.1755858032E-01  0.6691217421E-19  0.3619944202E-01  0.5643451923E+15 -0.3746136054E-01  0.6401297687E-19  0.3635250047E-01
  0.1153011065E+01  0.1000000000E+01  0.0000000000E+00  0.9084009128E-02  0.4665723957E-18 -0.9964869462E-02  0.5643451923E+15 -0.1118144216E-01 -0.4490770432E-18 -0.9830560598E-02
  0.1057046303E+01  0.1000000000E+01  0.0000000000E+00  0.1493295696E-01  0.3490388750E-18  0.5632689758E-02  0.5643451923E+15 -0.4804298453E-02 -0.1615705346E-18  0.5764984944E-02
  0.9429536967E+00  0.1000000000E+01  0.0000000000E+00  0.8767673071E-02  0.2106424343E-19 -0.8514103189E-02  0.5643451923E+15 -0.9988250767E-02  0.1476144773E-19 -0.8352014123E-02
  0.8469889352E+00  0.1000000000E+01  0.0000000000E+00  0.1239673992E-01 -0.2042160579E-19  0.5038231016E-02  0.5643451923E+15 -0.4965187959E-02 -0.1562367640E-19  0.5297382933E-02
  0.8000000000E+00  0.1000000000E+01  0.0000000000E+00 -0.1981475815E-01 -0.8427613196E-19 -0.1129726471E-01  0.5643451923E+15 -0.3596468128E-01 -0.9261782443E-19 -0.1104201852E-01
  0.1200000000E+01  0.1000000000E+01  0.4698893521E-01  0.2414694761E+01 -0.4467387314E-16 -0.1799233430E+00  0.5643451923E+15  0.2385919848E+01 -0.4332356780E-16 -0.2342190844E+00
  0.1153011065E+01  0.1000000000E+01  0.4698893521E-01  0.1719173152E+01 -0.2760490884E-16 -0.4097375940E-01  0.5643451923E+15  0.1687804317E+01 -0.2653417198E-16 -0.9554194885E-01
  0.1057046303E+01  0.1000000000E+01  0.4698893521E-01  0.1564584744E+01 -0.1064689667E-16 -0.8954145810E-01  0.5643451923E+15  0.1531686319E+01 -0.1112712443E-16 -0.1443001453E+00
  0.9429536967E+00  0.1000000000E+01  0.4698893521E-01  0.9265074928E+00 -0.1501618704E-16 -0.9050017086E-01  0.5643451923E+15  0.8934863062E+00 -0.1413214669E-16 -0.1459579859E+00
  0.8469889352E+00  0.1000000000E+01  0.4698893521E-01  0.7992731953E+00 -0.2858510304E-16 -0.9471658448E-01  0.5643451923E+15  0.7663734961E+00 -0.2707000683E-16 -0.1498969566E+00
  0.8000000000E+00  0.1000000000E+01  0.4698893521E-01  0.3941365926E+00 -0.2236287927E-16 -0.8613483810E-02  0.5643451923E+15  0.3623769685E+00 -0.2199775763E-16 -0.6346145588E-01
  0.1200000000E+01  0.1000000000E+01  0.1429536967E+00  0.5623294730E+01 -0.6076623603E-16 -0.6024295700E+00  0.5643451923E+15  0.5603878195E+01 -0.6010975689E-16 -0.6735418351E+00
  0.1153011065E+01  0.1000000000E+01  0.1429536967E+00  0.4160202536E+01 -0.6297889904E-16 -0.8235889154E+00  0.5643451923E+15  0.4134233929E+01 -0.6403582340E-16 -0.8993776327E+00
  0.1057046303E+01  0.1000000000E+01  0.1429536967E+00  0.3729602095E+01 -0.3601480258E-16 -0.6337855920E+00  0.5643451923E+15  0.3702091935E+01 -0.3600699917E-16 -0.7200073444E+00
  0.9429536967E+00  0.1000000000E+01  0.1429536967E+00  0.2397444250E+01 -0.3123618739E-16 -0.7624673000E+00  0.5643451923E+15  0.2365526946E+01 -0.3127916277E-16 -0.8564069626E+00
  0.8469889352E+00  0.1000000000E+01  0.1429536967E+00  0.2048048289E+01 -0.4830499383E-16 -0.4237238007E+00  0.5643451923E+15  0.2012122159E+01 -0.4703905078E-16 -0.5158646643E+00
  0.8000000000E+00  0.1000000000E+01  0.1429536967E+00  0.1293380956E+01 -0.5162704420E-16 -0.4099799852E+00  0.5643451923E+15  0.1262031753E+01 -0.5257439776E-16 -0.5004917612E+00
  0.1200000000E+01  0.1000000000E+01  0.2570463033E+00  0.6241092102E+01 -0.9621576114E-17 -0.1753004732E+01  0.5643451923E+15  0.6234636897E+01 -0.9616474847E-17 -0.1808090339E+01
  0.1153011065E+01  0.1000000000E+01  0.2570463033E+00  0.5697430363E+01 -0.4823482224E-16 -0.2031416919E+01  0.5643451923E+15  0.5688740330E+01 -0.4808938029E-16 -0.2096265956E+01
  0.1057046303E+01  0.1000000000E+01  0.2570463033E+00  0.4795742244E+01 -0.2935706261E-16 -0.1694800454E+01  0.5643451923E+15  0.4782717705E+01 -0.2939043382E-16 -0.1773784742E+01
  0.9429536967E+00  0.1000000000E+01  0.2570463033E+00  0.3707759898E+01 -0.3084195568E-16 -0.1778042767E+01  0.5643451923E+15  0.3682142957E+01 -0.2940807849E-16 -0.1868007611E+01
  0.8469889352E+00  0.1000000000E+01  0.2570463033E+00  0.3048252643E+01 -0.8463857549E-17 -0.1145079426E+01  0.5643451923E+15  0.3012930747E+01 -0.1093637636E-16 -0.1244754940E+01
  0.8000000000E+00  0.1000000000E+01  0.2570463033E+00  0.2585723356E+01 -0.9078818354E-17 -0.1072818290E+01  0.5643451923E+15  0.2551795248E+01 -0.9138611846E-17 -0.1173600404E+01
  0.1200000000E+01  0.1000000000E+01  0.3530110648E+00  0.6806850864E+01  0.2440813557E-16 -0.2938554179E+01  0.5643451923E+15  0.6817824784E+01  0.2439280281E-16 -0.2992520740E+01
  0.1153011065E+01  0.1000000000E+01  0.3530110648E+00  0.6076234988E+01  0.6149268612E-17 -0.2922711981E+01  0.5643451923E+15  0.6083450419E+01  0.6045975040E-17 -0.2982629905E+01
  0.1057046303E+01  0.1000000000E+01  0.3530110648E+00  0.5271259024E+01 -0.9701563333E-17 -0.2652330692E+01  0.5643451923E+15  0.5265160358E+01 -0.8734633450E-17 -0.2719719640E+01
  0.9429536967E+00  0.1000000000E+01  0.3530110648E+00  0.4160287341E+01 -0.1639314470E-16 -0.2519243638E+01  0.5643451923E+15  0.4145548101E+01 -0.1525965043E-16 -0.2591973658E+01
  0.8469889352E+00  0.1000000000E+01  0.3530110648E+00  0.3536098295E+01  0.2941397205E-17 -0.1927323496E+01  0.5643451923E+15  0.3513938158E+01  0.3040861747E-17 -0.2014165548E+01
  0.8000000000E+00  0.1000000000E+01  0.3530110648E+00  0.2989290550E+01  0.4273571794E-17 -0.1744473577E+01  0.5643451923E+15  0.2955053983E+01  0.4347559778E-17 -0.1836195954E+01
  0.1200000000E+01  0.1000000000E+01  0.4000000000E+00  0.6650370201E+01  0.2630457789E-16 -0.3279083657E+01  0.5643451923E+15  0.6662478176E+01  0.2626390733E-16 -0.3321603829E+01
  0.1153011065E+01  0.1000000000E+01  0.4000000000E+00  0.6279653194E+01  0.2155727333E-16 -0.3461429063E+01  0.5643451923E+15  0.6290814897E+01  0.2245473973E-16 -0.3506240350E+01
  0.1057046303E+01  0.1000000000E+01  0.4000000000E+00  0.5331074381E+01 -0.6927308554E-18 -0.3078825659E+01  0.5643451923E+15  0.5326855142E+01 -0.5545554755E-18 -0.3130026014E+01
  0.9429536967E+00  0.1000000000E+01  0.4000000000E+00  0.4327561711E+01 -0.1798165274E-16 -0.2936469918E+01  0.5643451923E+15  0.4315032230E+01 -0.1770702068E-16 -0.2989493019E+01
  0.8469889352E+00  0.1000000000E+01  0.4000000000E+00  0.3573217214E+01 -0.7727547786E-17 -0.2289554616E+01  0.5643451923E+15  0.3556762395E+01 -0.7866039081E-17 -0.2343578410E+01
  0.8000000000E+00  0.1000000000E+01  0.4000000000E+00  0.3213001383E+01 -0.3369374713E-17 -0.2151214661E+01  0.5643451923E+15  0.3180532778E+01 -0.3374952275E-17 -0.2208444748E+01
ZONE I=6, J=6, K=1, F=POINT
  0.1600000000E+01  0.1000000000E+01  0.0000000000E+00  0.1505776898E+00 -0.9309329107E-18 -0.7244375051E-01  0.5643451923E+15  0.1300326729E+00 -0.1036511136E-17 -0.7198952757E-01
  0.1553011065E+01  0.1000000000E+01  0.0000000000E+00  0.2934806591E-01 -0.2249095242E-17  0.4504472893E-01  0.5643451923E+15  0.9241660022E-02 -0.1308871978E-17  0.4491650703E-01
  0.1457046303E+01  0.1000000000E+01  0.0000000000E+00  0.9806827924E-02 -0.4882810874E-18 -0.3459176779E-02  0.5643451923E+15 -0.1003810699E-01 -0.3789931229E-19 -0.3399905455E-02
  0.1342953697E+01  0.1000000000E+01  0.0000000000E+00  0.2074151167E-01  0.1266233144E-17  0.2950165260E-01  0.5643451923E+15  0.1251056062E-02  0.1863407773E-18  0.2943520338E-01
  0.1246988935E+01  0.1000000000E+01  0.0000000000E+00  0.6602211960E-02  0.1668046625E-18 -0.8510126979E-02  0.5643451923E+15 -0.1288700821E-01  0.6380071367E-19 -0.8409439261E-02
  0.1200000000E+01  0.1000000000E+01  0.0000000000E+00  0.7184992050E-01  0.7565078273E-19  0.3622984029E-01  0.5643451923E+15  0.5211140998E-01  0.6890784605E-19  0.3638351082E-01
  0.1600000000E+01  0.1000000000E+01  0.4698893521E-01  0.3045270688E+01 -0.8926097475E-16  0.2592762917E+00  0.5643451923E+15  0.3023327933E+01 -0.8876361042E-16  0.2082595105E+00
  0.1553011065E+01  0.1000000000E+01  0.4698893521E-01  0.3573367408E+01 -0.4271392923E-16 -0.2393477384E+00  0.5643451923E+15  0.3553329170E+01 -0.4328473094E-16 -0.2913991321E+00
  0.1457046303E+01  0.1000000000E+01  0.4698893521E-01  0.2666327779E+01 -0.6522100060E-17 -0.4232351651E-01  0.5643451923E+15  0.2642567071E+01 -0.5863124403E-17 -0.9451764529E-01
  0.1342953697E+01  0.1000000000E+01  0.4698893521E-01  0.2714910385E+01  0.2837621190E-16 -0.2715216531E-01  0.5643451923E+15  0.2688830550E+01  0.2811842037E-16 -0.7597433936E-01
  0.1246988935E+01  0.1000000000E+01  0.4698893521E-01  0.2143802242E+01 -0.5488196016E-17 -0.4270468885E-02  0.5643451923E+15  0.2117225444E+01 -0.6589848172E-17 -0.5656771010E-01
  0.1200000000E+01  0.1000000000E+01  0.4698893521E-01  0.2513462981E+01 -0.4891622813E-16 -0.1856340868E+00  0.5643451923E+15  0.2482555198E+01 -0.4753032484E-16 -0.2395384370E+00
  0.1600000000E+01  0.1000000000E+01  0.1429536967E+00  0.6532492033E+01 -0.2669800686E-15 -0.1597815515E+01  0.5643451923E+15  0.6496794126E+01 -0.2681348037E-15 -0.1672108329E+01
  0.1553011065E+01  0.1000000000E+01  0.1429536967E+00  0.8276108847E+01 -0.1468509795E-15 -0.7669183964E+00  0.5643451923E+15  0.8254425711E+01 -0.1457930720E-15 -0.8397584317E+00
  0.1457046303E+01  0.1000000000E+01  0.1429536967E+00  0.6359047008E+01  0.3065450730E-16 -0.7805973216E+00  0.5643451923E+15  0.6331050560E+01  0.2866689618E-16 -0.8462014820E+00
  0.1342953697E+01  0.1000000000E+01  0.1429536967E+00  0.6419302543E+01  0.9953463049E-16 -0.1260559510E+00  0.5643451923E+15  0.6393941617E+01  0.9858174033E-16 -0.1886701725E+00
  0.1246988935E+01  0.1000000000E+01  0.1429536967E+00  0.5064814592E+01  0.2028573383E-16 -0.7196500922E+00  0.5643451923E+15  0.5046020157E+01  0.2222875261E-16 -0.7862652250E+00
  0.1200000000E+01  0.1000000000E+01  0.1429536967E+00  0.5790788220E+01 -0.6487632938E-16 -0.5966511240E+00  0.5643451923E+15  0.5759953948E+01 -0.6410303305E-16 -0.6686687628E+00
  0.1600000000E+01  0.1000000000E+01  0.2570463033E+00  0.1170538037E+02  0.9802513984E-16 -0.3251178816E+01  0.5643451923E+15  0.1169708339E+02  0.9791266897E-16 -0.3302955537E+01
  0.1553011065E+01  0.1000000000E+01  0.2570463033E+00  0.1070208475E+02  0.1207054259E-15 -0.2175470927E+01  0.5643451923E+15  0.1067636381E+02  0.1198616695E-15 -0.2222339446E+01
  0.1457046303E+01  0.1000000000E+01  0.2570463033E+00  0.9485899989E+01  0.1791160170E-15 -0.2121380815E+01  0.5643451923E+15  0.9451499826E+01  0.1770623050E-15 -0.2165269307E+01
  0.1342953697E+01  0.1000000000E+01  0.2570463033E+00  0.7948123546E+01  0.1276891808E-15 -0.1117294955E+01  0.5643451923E+15  0.7926809419E+01  0.1264769850E-15 -0.1160171860E+01
  0.1246988935E+01  0.1000000000E+01  0.2570463033E+00  0.6708673416E+01  0.4070076714E-16 -0.1954303854E+01  0.5643451923E+15  0.6700069844E+01  0.3961147203E-16 -0.2002366506E+01
  0.1200000000E+01  0.1000000000E+01  0.2570463033E+00  0.6282565410E+01 -0.9951846510E-17 -0.1742968680E+01  0.5643451923E+15  0.6275134076E+01 -0.9967382785E-17 -0.1801087033E+01
  0.1600000000E+01  0.1000000000E+01  0.3530110648E+00  0.1039206408E+02  0.1995215015E-15 -0.3597063978E+01  0.5643451923E+15  0.1037851798E+02  0.1994953726E-15 -0.3620278789E+01
  0.1553011065E+01  0.1000000000E+01  0.3530110648E+00  0.1065754854E+02  0.2002871406E-15 -0.3532303563E+01  0.5643451923E+15  0.1063607495E+02  0.2001040000E-15 -0.3561398420E+01
  0.1457046303E+01  0.1000000000E+01  0.3530110648E+00  0.9601678469E+01  0.1862666848E-15 -0.3215058775E+01  0.5643451923E+15  0.9568502437E+01  0.1846960991E-15 -0.3252645471E+01
  0.1342953697E+01  0.1000000000E+01  0.3530110648E+00  0.8405810517E+01  0.1362815029E-15 -0.2612585897E+01  0.5643451923E+15  0.8386979900E+01  0.1360591237E-15 -0.2653273440E+01
  0.1246988935E+01  0.1000000000E+01  0.3530110648E+00  0.6996074446E+01  0.5065633541E-16 -0.2944037356E+01  0.5643451923E+15  0.7000288097E+01  0.5108745850E-16 -0.2991758651E+01
  0.1200000000E+01  0.1000000000E+01  0.3530110648E+00  0.6886183342E+01  0.2453599376E-16 -0.2938740267E+01  0.5643451923E+15  0.6892388180E+01  0.2447627222E-16 -0.2992512433E+01
  0.1600000000E+01  0.1000000000E+01  0.4000000000E+00  0.1065016729E+02  0.1995813260E-15 -0.4185574693E+01  0.5643451923E+15  0.1064867927E+02  0.1994417266E-15 -0.4204084877E+01
  0.1553011065E+01  0.1000000000E+01  0.4000000000E+00  0.1007111895E+02  0.2078096838E-15 -0.3450007260E+01  0.5643451923E+15  0.1005712238E+02  0.2078608412E-15 -0.3472802544E+01
  0.1457046303E+01  0.1000000000E+01  0.4000000000E+00  0.9603200188E+01  0.1726707183E-15 -0.3690175440E+01  0.5643451923E+15  0.9571957178E+01  0.1725900016E-15 -0.3718517061E+01
  0.1342953697E+01  0.1000000000E+01  0.4000000000E+00  0.8267625309E+01  0.1421146211E-15 -0.2999166532E+01  0.5643451923E+15  0.8252885301E+01  0.1406582070E-15 -0.3038003516E+01
  0.1246988935E+01  0.1000000000E+01  0.4000000000E+00  0.7227109258E+01  0.4790546655E-16 -0.3525838054E+01  0.5643451923E+15  0.7233844047E+01  0.4848074925E-16 -0.3567682817E+01
  0.1200000000E+01  0.1000000000E+01  0.4000000000E+00  0.6623969681E+01  0.2660428217E-16 -0.3266448011E+01  0.5643451923E+15  0.6637817652E+01  0.2653925098E-16 -0.3312045425E+01
ZONE I=6, J=6, K=1, F=POINT
  0.2000000000E+01  0.1000000000E+01  0.0000000000E+00  0.2404540208E+01  0.7791495983E-19  0.2123586960E+02  0.5643451923E+15  0.2431042766E+01  0.9588944491E-19  0.2215624136E+02
  0.1953011065E+01  0.1000000000E+01  0.0000000000E+00  0.1315227182E+01 -0.3778056520E-16 -0.1344552311E+00  0.5643451923E+15  0.1302014312E+01 -0.3614713618E-16 -0.1489446330E+00
  0.1857046303E+01  0.1000000000E+01  0.0000000000E+00 -0.2793872305E+00 -0.1725904325E-16  0.1513033542E+00  0.5643451923E+15 -0.3020844748E+00 -0.1902883439E-16  0.1497803903E+00
  0.1742953697E+01  0.1000000000E+01  0.0000000000E+00  0.1578447992E+00  0.2921794649E-18 -0.3691672100E-01  0.5643451923E+15  0.1375426471E+00  0.1188481078E-18 -0.3683896718E-01
  0.1646988935E+01  0.1000000000E+01  0.0000000000E+00 -0.1021416611E+00  0.2420876447E-18  0.6007887036E-01  0.5643451923E+15 -0.1252453149E+00  0.2913884401E-18  0.5927797432E-01
  0.1600000000E+01  0.1000000000E+01  0.0000000000E+00  0.1077709542E+00 -0.1015053732E-17 -0.8448387040E-01  0.5643451923E+15  0.8753074946E-01 -0.1119463803E-17 -0.8263244135E-01
  0.2000000000E+01  0.1000000000E+01  0.4698893521E-01 -0.9470619217E-02  0.7564326762E-18  0.4850638722E+02  0.5643451923E+15 -0.5385288275E-01  0.7018489041E-18  0.4866332396E+02
  0.1953011065E+01  0.1000000000E+01  0.4698893521E-01  0.1101107954E+02  0.1354538285E-15  0.1511332382E+01  0.5643451923E+15  0.1099508760E+02  0.1342477590E-15  0.1523816800E+01
  0.1857046303E+01  0.1000000000E+01  0.4698893521E-01  0.1165164907E+02  0.2896000970E-15 -0.1858677484E+01  0.5643451923E+15  0.1164807408E+02  0.2894444716E-15 -0.1869293547E+01
  0.1742953697E+01  0.1000000000E+01  0.4698893521E-01  0.5739217917E+01 -0.4457188390E-16 -0.5976055032E+00  0.5643451923E+15  0.5733457766E+01 -0.4419615939E-16 -0.6385973384E+00
  0.1646988935E+01  0.1000000000E+01  0.4698893521E-01  0.4502994876E+01 -0.1261994547E-15 -0.5924870873E+00  0.5643451923E+15  0.4483223394E+01 -0.1252926593E-15 -0.6421179789E+00
  0.1600000000E+01  0.1000000000E+01  0.4698893521E-01  0.2879244768E+01 -0.8636215217E-16  0.2451466157E+00  0.5643451923E+15  0.2867163017E+01 -0.8569562140E-16  0.1888621139E+00
  0.2000000000E+01  0.1000000000E+01  0.1429536967E+00 -0.2827999572E+00  0.2682012116E-17  0.5053236170E+02  0.5643451923E+15 -0.2586289720E+00  0.2662837136E-17  0.5044470472E+02
  0.1953011065E+01  0.1000000000E+01  0.1429536967E+00  0.2837443057E+01 -0.5049658933E-15  0.1640328454E+02  0.5643451923E+15  0.2816286512E+01 -0.5055755202E-15  0.1642766193E+02
  0.1857046303E+01  0.1000000000E+01  0.1429536967E+00  0.1269613264E+02 -0.2694341081E-15 -0.3616717013E+01  0.5643451923E+15  0.1270829258E+02 -0.2703456926E-15 -0.3625667450E+01
  0.1742953697E+01  0.1000000000E+01  0.1429536967E+00  0.9984379070E+01 -0.3308805671E-16 -0.3944693316E+01  0.5643451923E+15  0.1000493389E+02 -0.3164455185E-16 -0.3993476473E+01
  0.1646988935E+01  0.1000000000E+01  0.1429536967E+00  0.9476384573E+01 -0.1650752171E-15 -0.1866995810E+01  0.5643451923E+15  0.9465929578E+01 -0.1645199584E-15 -0.1935737557E+01
  0.1600000000E+01  0.1000000000E+01  0.1429536967E+00  0.6158716867E+01 -0.2835769843E-15 -0.1598422185E+01  0.5643451923E+15  0.6164180347E+01 -0.2850568125E-15 -0.1676854527E+01
  0.2000000000E+01  0.1000000000E+01  0.2570463033E+00  0.1902571889E-01  0.1159554180E-17  0.4989972196E+02  0.5643451923E+15  0.1768205277E-01  0.1115555795E-17  0.4987952442E+02