TITLE = "Generated from ../MESH/Convergence_0000000000.hmesh and Convergence_0000005200.hsol"
VARIABLES = "x","y","z","veloT_x","veloT_y","veloT_z","slr_4","velo_x","velo_y","velo_z"
ZONE I=6, J=6, K=1, F=POINT
  0.4000000000E+00  0.1000000000E+01  0.0000000000E+00 -0.1068546205E-01  0.2788775305E-19  0.7340159496E-02  0.6433099671E+15 -0.1047785703E-01  0.2848084377E-19  0.7575198163E-02
  0.3530110648E+00  0.1000000000E+01  0.0000000000E+00  0.3488184712E-04  0.8559943722E-20 -0.3650358741E-03  0.6433099671E+15  0.3248327059E-03  0.8239858174E-20 -0.2579959539E-03
  0.2570463033E+00  0.1000000000E+01  0.0000000000E+00  0.9561160524E-03  0.1309015538E-20  0.2312760723E-02  0.6433099671E+15  0.1348354105E-02  0.1061889354E-20  0.2387292062E-02
  0.1429536967E+00  0.1000000000E+01  0.0000000000E+00 -0.3097762930E-03  0.3256561437E-21 -0.1121453773E-02  0.6433099671E+15  0.4719971891E-03  0.2577327007E-21 -0.1057118760E-02
  0.4698893521E-01  0.1000000000E+01  0.0000000000E+00  0.2212993130E-02 -0.2536987619E-20  0.2024439792E-02  0.6433099671E+15  0.2976486787E-02 -0.2340815045E-20  0.1892360360E-02
  0.0000000000E+00  0.1000000000E+01  0.0000000000E+00 -0.7555525903E-02  0.1538110129E-22  0.2056231936E-02  0.6433099671E+15 -0.7439084198E-02  0.1314818000E-22  0.1950516782E-02
  0.4000000000E+00  0.1000000000E+01  0.4698893521E-01  0.2688989343E+00  0.3114098513E-17 -0.5455253926E-01  0.6433099671E+15  0.2710712720E+00  0.3102454549E-17 -0.5955731332E-01
  0.3530110648E+00  0.1000000000E+01  0.4698893521E-01  0.1260584696E+00  0.2843584708E-17 -0.1580654875E-01  0.6433099671E+15  0.1288742435E+00  0.2819548131E-17 -0.2060359940E-01
  0.2570463033E+00  0.1000000000E+01  0.4698893521E-01  0.9727434191E-01  0.1161091700E-17 -0.2004190990E-01  0.6433099671E+15  0.9959039905E-01  0.1150468243E-17 -0.2530135299E-01
  0.1429536967E+00  0.1000000000E+01  0.4698893521E-01  0.2675163747E-02  0.3305113879E-18 -0.9628205265E-02  0.6433099671E+15  0.5428061055E-02  0.3353803640E-18 -0.1397149259E-01
  0.4698893521E-01  0.1000000000E+01  0.4698893521E-01 -0.3065753046E-02  0.7570168596E-19 -0.7426634828E-02  0.6433099671E+15 -0.3944275316E-03  0.7999393218E-19 -0.1066256944E-01
  0.0000000000E+00  0.1000000000E+01  0.4698893521E-01 -0.1815520972E-01  0.9924648664E-21  0.2008917306E-02  0.6433099671E+15 -0.1802890644E-01  0.1007955185E-20  0.1189245781E-02
  0.4000000000E+00  0.1000000000E+01  0.1429536967E+00  0.6088079070E+00  0.1007093490E-16 -0.1320404576E+00  0.6433099671E+15  0.6132239091E+00  0.1013030434E-16 -0.1285048517E+00
  0.3530110648E+00  0.1000000000E+01  0.1429536967E+00  0.3367925334E+00  0.6368136661E-17 -0.1685532822E+00  0.6433099671E+15  0.3427510311E+00  0.6359978083E-17 -0.1679220577E+00
  0.2570463033E+00  0.1000000000E+01  0.1429536967E+00  0.2316391827E+00  0.2680758026E-17 -0.1029520743E+00  0.6433099671E+15  0.2358557258E+00  0.2679358492E-17 -0.1077523567E+00
  0.1429536967E+00  0.1000000000E+01  0.1429536967E+00  0.3614655772E-01  0.1055588287E-17 -0.1107227933E+00  0.6433099671E+15  0.3729236380E-01  0.1051926441E-17 -0.1172444002E+00
  0.4698893521E-01  0.1000000000E+01  0.1429536967E+00 -0.7219894054E-02  0.2637987670E-18 -0.7034853222E-02  0.6433099671E+15 -0.6610381170E-02  0.2825900805E-18 -0.1095020657E-01
  0.0000000000E+00  0.1000000000E+01  0.1429536967E+00 -0.2139554929E-01  0.2095566629E-21 -0.1585907698E-02  0.6433099671E+15 -0.2144427257E-01  0.1148285028E-21 -0.2487359635E-02
  0.4000000000E+00  0.1000000000E+01  0.2570463033E+00  0.7305877051E+00  0.4344615371E-17 -0.3961500789E+00  0.6433099671E+15  0.7422379259E+00  0.4358187063E-17 -0.3803521116E+00
  0.3530110648E+00  0.1000000000E+01  0.2570463033E+00  0.5298885489E+00  0.3361918546E-17 -0.4390357287E+00  0.6433099671E+15  0.5452228126E+00  0.3541318952E-17 -0.4266513064E+00
  0.2570463033E+00  0.1000000000E+01  0.2570463033E+00  0.3190343588E+00  0.2469228983E-17 -0.3084467773E+00  0.6433099671E+15  0.3305194143E+00  0.2469163846E-17 -0.3042974849E+00
  0.1429536967E+00  0.1000000000E+01  0.2570463033E+00  0.9449271987E-01  0.1772264528E-17 -0.2844517640E+00  0.6433099671E+15  0.9607634181E-01  0.1772841679E-17 -0.2862134871E+00
  0.4698893521E-01  0.1000000000E+01  0.2570463033E+00  0.9880713733E-02  0.1154432887E-17 -0.4852172973E-01  0.6433099671E+15  0.8299842780E-02  0.1119351754E-17 -0.5124928186E-01
  0.0000000000E+00  0.1000000000E+01  0.2570463033E+00 -0.1417841192E-01 -0.4332767565E-20 -0.1319578465E-02  0.6433099671E+15 -0.1410727095E-01 -0.3691659500E-20 -0.2164165786E-02
  0.4000000000E+00  0.1000000000E+01  0.3530110648E+00  0.8014568991E+00  0.4892222981E-17 -0.6919962562E+00  0.6433099671E+15  0.8163028714E+00  0.4883648705E-17 -0.6721907847E+00
  0.3530110648E+00  0.1000000000E+01  0.3530110648E+00  0.5812548298E+00  0.4336334676E-17 -0.6985320107E+00  0.6433099671E+15  0.6034272058E+00  0.4338955271E-17 -0.6805907932E+00
  0.2570463033E+00  0.1000000000E+01  0.3530110648E+00  0.3448140600E+00  0.2475695879E-17 -0.5353932035E+00  0.6433099671E+15  0.3640474000E+00  0.2327922791E-17 -0.5250846465E+00
  0.1429536967E+00  0.1000000000E+01  0.3530110648E+00  0.1002258713E+00  0.2283369500E-17 -0.4336254241E+00  0.6433099671E+15  0.1061304377E+00  0.2268873566E-17 -0.4318824754E+00
  0.4698893521E-01  0.1000000000E+01  0.3530110648E+00  0.1119721724E-01  0.6803910067E-18 -0.1125640385E+00  0.6433099671E+15  0.1124159290E-01  0.7024137727E-18 -0.1150291697E+00
  0.0000000000E+00  0.1000000000E+01  0.3530110648E+00 -0.1439320023E-01  0.5253084789E-20 -0.1590278927E-02  0.6433099671E+15 -0.1431837412E-01  0.5519077056E-20 -0.2569837179E-02
  0.4000000000E+00  0.1000000000E+01  0.4000000000E+00  0.7988201513E+00  0.6992072287E-17 -0.8486203805E+00  0.6433099671E+15  0.8144031127E+00  0.6996717690E-17 -0.8255651125E+00
  0.3530110648E+00  0.1000000000E+01  0.4000000000E+00  0.6233362371E+00  0.6070642448E-17 -0.8409246208E+00  0.6433099671E+15  0.6486886858E+00  0.6012771345E-17 -0.8205942624E+00
  0.2570463033E+00  0.1000000000E+01  0.4000000000E+00  0.3519841903E+00  0.2564069257E-17 -0.6498419689E+00  0.6433099671E+15  0.3756132570E+00  0.2629315156E-17 -0.6381079207E+00
  0.1429536967E+00  0.1000000000E+01  0.4000000000E+00  0.1102353183E+00  0.2431391752E-17 -0.5081301712E+00  0.6433099671E+15  0.1190726472E+00  0.2435358982E-17 -0.5075115825E+00
  0.4698893521E-01  0.1000000000E+01  0.4000000000E+00  0.7242600033E-02  0.6740446902E-18 -0.1428094804E+00  0.6433099671E+15  0.8159610023E-02  0.6814201588E-18 -0.1449591493E+00
  0.0000000000E+00  0.1000000000E+01  0.4000000000E+00 -0.7026030203E-02  0.8488300274E-20 -0.2989957553E-02  0.6433099671E+15 -0.6623566608E-02  0.8030857141E-20 -0.3693358064E-02
ZONE I=6, J=6, K=1, F=POINT
  0.8000000000E+00  0.1000000000E+01  0.0000000000E+00  0.1971301163E-01 -0.8501018279E-19 -0.1215087581E-01  0.6433099671E+15  0.1945033445E-01 -0.8695501805E-19 -0.1222329498E-01
  0.7530110648E+00  0.1000000000E+01  0.0000000000E+00  0.3546086790E-02  0.1122231357E-18  0.5850953069E-02  0.6433099671E+15  0.3321995606E-02  0.1064014681E-18  0.5841387688E-02
  0.6570463033E+00  0.1000000000E+01  0.0000000000E+00  0.7805440426E-03  0.3923463653E-19  0.1779641112E-03  0.6433099671E+15  0.5805376789E-03  0.3512790103E-19  0.2041670584E-03
  0.5429536967E+00  0.1000000000E+01  0.0000000000E+00  0.1885441245E-02  0.5400946204E-19  0.6867018861E-02  0.6433099671E+15  0.2188480335E-02  0.6002253788E-19  0.7000633776E-02
  0.4469889352E+00  0.1000000000E+01  0.0000000000E+00 -0.1012024497E-02 -0.1032894212E-19  0.6297030448E-03  0.6433099671E+15 -0.4280251906E-03  0.6741035758E-20  0.7285189430E-03
  0.4000000000E+00  0.1000000000E+01  0.0000000000E+00  0.1581976121E-01  0.3153192259E-19  0.7016692878E-02  0.6433099671E+15  0.1613625643E-01  0.3213746867E-19  0.7258107080E-02
  0.8000000000E+00  0.1000000000E+01  0.4698893521E-01  0.3499899067E+00 -0.2337239322E-16  0.1390238093E-01  0.6433099671E+15  0.3522639975E+00 -0.2339696896E-16  0.7819339870E-02
  0.7530110648E+00  0.1000000000E+01  0.4698893521E-01  0.5411834477E+00 -0.2294772676E-16 -0.4611823098E-01  0.6433099671E+15  0.5430295833E+00 -0.2304367389E-16 -0.5146653186E-01
  0.6570463033E+00  0.1000000000E+01  0.4698893521E-01  0.3156700158E+00 -0.4357304368E-17 -0.1531612855E-01  0.6433099671E+15  0.3179438268E+00 -0.4339752593E-17 -0.2078946260E-01
  0.5429536967E+00  0.1000000000E+01  0.4698893521E-01  0.3414484731E+00  0.4463412410E-17 -0.8177514899E-02  0.6433099671E+15  0.3440709796E+00  0.4504430792E-17 -0.1438454689E-01
  0.4469889352E+00  0.1000000000E+01  0.4698893521E-01  0.2091968749E+00  0.4052871151E-17 -0.8403978978E-02  0.6433099671E+15  0.2117637531E+00  0.4041358745E-17 -0.1331526071E-01
  0.4000000000E+00  0.1000000000E+01  0.4698893521E-01  0.3108775252E+00  0.2873542055E-17 -0.5531292035E-01  0.6433099671E+15  0.3133437648E+00  0.2859924102E-17 -0.6030755154E-01
  0.8000000000E+00  0.1000000000E+01  0.1429536967E+00  0.1130649222E+01 -0.5295133396E-16 -0.3621309197E+00  0.6433099671E+15  0.1128967733E+01 -0.5298482855E-16 -0.3626802100E+00
  0.7530110648E+00  0.1000000000E+01  0.1429536967E+00  0.1415294052E+01 -0.3332343732E-16 -0.2159087526E+00  0.6433099671E+15  0.1414217082E+01 -0.3333084594E-16 -0.2139118830E+00
  0.6570463033E+00  0.1000000000E+01  0.1429536967E+00  0.9533885804E+00 -0.3242113562E-17 -0.2099283728E+00  0.6433099671E+15  0.9551179955E+00 -0.3305226013E-17 -0.2042057410E+00
  0.5429536967E+00  0.1000000000E+01  0.1429536967E+00  0.8698388835E+00  0.1019681371E-16 -0.6786680331E-01  0.6433099671E+15  0.8724319330E+00  0.1027462030E-16 -0.6119915455E-01
  0.4469889352E+00  0.1000000000E+01  0.1429536967E+00  0.5540633767E+00  0.9879903200E-17 -0.1543188129E+00  0.6433099671E+15  0.5572314864E+00  0.9835448867E-17 -0.1492341022E+00
  0.4000000000E+00  0.1000000000E+01  0.1429536967E+00  0.6600608263E+00  0.1077961795E-16 -0.1314887235E+00  0.6433099671E+15  0.6652358398E+00  0.1085353194E-16 -0.1279610804E+00
  0.8000000000E+00  0.1000000000E+01  0.2570463033E+00  0.2213274814E+01 -0.1212363572E-16 -0.9562259768E+00  0.6433099671E+15  0.2206224208E+01 -0.1213361112E-16 -0.9397032417E+00
  0.7530110648E+00  0.1000000000E+01  0.2570463033E+00  0.2067826978E+01 -0.8262788931E-17 -0.6952242617E+00  0.6433099671E+15  0.2060528569E+01 -0.7963556502E-17 -0.6766080216E+00
  0.6570463033E+00  0.1000000000E+01  0.2570463033E+00  0.1562784482E+01 -0.2791742370E-17 -0.6173888609E+00  0.6433099671E+15  0.1561949905E+01 -0.2768982539E-17 -0.5960884705E+00
  0.5429536967E+00  0.1000000000E+01  0.2570463033E+00  0.1190813677E+01  0.3658118396E-17 -0.3453376686E+00  0.6433099671E+15  0.1195342326E+01  0.3724862642E-17 -0.3256824893E+00
  0.4469889352E+00  0.1000000000E+01  0.2570463033E+00  0.8321210834E+00  0.4439060738E-17 -0.4445511219E+00  0.6433099671E+15  0.8392074662E+00  0.4659645498E-17 -0.4270144119E+00
  0.4000000000E+00  0.1000000000E+01  0.2570463033E+00  0.7612635627E+00  0.4371185477E-17 -0.3954961286E+00  0.6433099671E+15  0.7728527898E+00  0.4385291997E-17 -0.3797465725E+00
  0.8000000000E+00  0.1000000000E+01  0.3530110648E+00  0.2492974752E+01  0.2921043167E-17 -0.1492750761E+01  0.6433099671E+15  0.2483361954E+01  0.2919585108E-17 -0.1469224387E+01
  0.7530110648E+00  0.1000000000E+01  0.3530110648E+00  0.2361761010E+01  0.6850865125E-17 -0.1259969296E+01  0.6433099671E+15  0.2352530091E+01  0.6336311750E-17 -0.1236059003E+01
  0.6570463033E+00  0.1000000000E+01  0.3530110648E+00  0.1797830990E+01  0.3526664893E-18 -0.1049212866E+01  0.6433099671E+15  0.1799149451E+01  0.5115712081E-20 -0.1027517516E+01
  0.5429536967E+00  0.1000000000E+01  0.3530110648E+00  0.1344284828E+01 -0.1233198721E-17 -0.7154973880E+00  0.6433099671E+15  0.1350793582E+01 -0.1768636333E-17 -0.6973892875E+00
  0.4469889352E+00  0.1000000000E+01  0.3530110648E+00  0.9022961487E+00  0.4552984943E-17 -0.7409546706E+00  0.6433099671E+15  0.9094984200E+00  0.4399869362E-17 -0.7216069433E+00
  0.4000000000E+00  0.1000000000E+01  0.3530110648E+00  0.8344817861E+00  0.4865271947E-17 -0.6917828521E+00  0.6433099671E+15  0.8495615565E+00  0.4852917655E-17 -0.6719784882E+00
  0.8000000000E+00  0.1000000000E+01  0.4000000000E+00  0.2609268267E+01 -0.2822559900E-17 -0.1803961975E+01  0.6433099671E+15  0.2598217940E+01 -0.2814498922E-17 -0.1784253294E+01
  0.7530110648E+00  0.1000000000E+01  0.4000000000E+00  0.2345676470E+01  0.1463653799E-18 -0.1509464023E+01  0.6433099671E+15  0.2336767550E+01 -0.4723944500E-20 -0.1487883684E+01
  0.6570463033E+00  0.1000000000E+01  0.4000000000E+00  0.1826491211E+01  0.1408351299E-17 -0.1287303290E+01  0.6433099671E+15  0.1829259831E+01  0.1535226686E-17 -0.1267895256E+01
  0.5429536967E+00  0.1000000000E+01  0.4000000000E+00  0.1347434833E+01  0.8011030794E-17 -0.9627559612E+00  0.6433099671E+15  0.1353865973E+01  0.8301306683E-17 -0.9420111834E+00
  0.4469889352E+00  0.1000000000E+01  0.4000000000E+00  0.9719824538E+00  0.8217505039E-17 -0.9287513403E+00  0.6433099671E+15  0.9779005053E+00  0.8316571224E-17 -0.9060329924E+00
  0.4000000000E+00  0.1000000000E+01  0.4000000000E+00  0.8101637136E+00  0.7012733006E-17 -0.8478194994E+00  0.6433099671E+15  0.8252162192E+00  0.7015663228E-17 -0.8247960492E+00
ZONE I=6, J=6, K=1, F=POINT
  0.1200000000E+01  0.1000000000E+01  0.0000000000E+00 -0.2905441612E-01  0.5763231755E-19  0.3716460007E-01  0.6433099671E+15 -0.3009911154E-01  0.5959473340E-19  0.3655214064E-01
  0.1153011065E+01  0.1000000000E+01  0.0000000000E+00 -0.2281000764E-02 -0.9630550604E-19 -0.9563004718E-02  0.6433099671E+15 -0.3331242966E-02 -0.1427140221E-18 -0.9637028254E-02
  0.1057046303E+01  0.1000000000E+01  0.0000000000E+00  0.4704950364E-02  0.8524265904E-19  0.5927210191E-02  0.6433099671E+15  0.4060620980E-02  0.6774522425E-19  0.5990194401E-02
  0.9429536967E+00  0.1000000000E+01  0.0000000000E+00  0.1046390260E-03  0.4076535234E-20 -0.8339585995E-02  0.6433099671E+15 -0.3027616034E-03  0.4014429552E-20 -0.8285465233E-02
  0.8469889352E+00  0.1000000000E+01  0.0000000000E+00  0.5373030981E-02 -0.2228760281E-19  0.5165202205E-02  0.6433099671E+15  0.4950113436E-02 -0.2284485040E-19  0.5199019173E-02
  0.8000000000E+00  0.1000000000E+01  0.0000000000E+00 -0.2557615199E-01 -0.9458719129E-19 -0.1159631670E-01  0.6433099671E+15 -0.2598511194E-01 -0.9666474388E-19 -0.1169537048E-01
  0.1200000000E+01  0.1000000000E+01  0.4698893521E-01  0.2247381781E+01 -0.4227053210E-16 -0.1990290535E+00  0.6433099671E+15  0.2250354611E+01 -0.4236797764E-16 -0.2148726186E+00
  0.1153011065E+01  0.1000000000E+01  0.4698893521E-01  0.1553556567E+01 -0.2629730413E-16 -0.5398126419E-01  0.6433099671E+15  0.1555028171E+01 -0.2632065988E-16 -0.6882652351E-01
  0.1057046303E+01  0.1000000000E+01  0.4698893521E-01  0.1406773920E+01 -0.1208367711E-16 -0.9055926285E-01  0.6433099671E+15  0.1408758672E+01 -0.1207686800E-16 -0.1019587696E+00
  0.9429536967E+00  0.1000000000E+01  0.4698893521E-01  0.7889204106E+00 -0.1455965540E-16 -0.7892302343E-01  0.6433099671E+15  0.7917654297E+00 -0.1463809117E-16 -0.8763970547E-01
  0.8469889352E+00  0.1000000000E+01  0.4698893521E-01  0.6810626256E+00 -0.2752076710E-16 -0.7412982134E-01  0.6433099671E+15  0.6834844524E+00 -0.2762073667E-16 -0.8099623907E-01
  0.8000000000E+00  0.1000000000E+01  0.4698893521E-01  0.2892221184E+00 -0.2267704419E-16  0.1595807259E-01  0.6433099671E+15  0.2918791773E+00 -0.2271152311E-16  0.9817885376E-02
  0.1200000000E+01  0.1000000000E+01  0.1429536967E+00  0.5220480212E+01 -0.5828677877E-16 -0.6369492389E+00  0.6433099671E+15  0.5228404062E+01 -0.5837258006E-16 -0.6487576695E+00
  0.1153011065E+01  0.1000000000E+01  0.1429536967E+00  0.3757320797E+01 -0.6698023584E-16 -0.8438236303E+00  0.6433099671E+15  0.3757636064E+01 -0.6693768105E-16 -0.8560399156E+00
  0.1057046303E+01  0.1000000000E+01  0.1429536967E+00  0.3351244405E+01 -0.3798750129E-16 -0.6267216610E+00  0.6433099671E+15  0.3350521260E+01 -0.3799730525E-16 -0.6382892003E+00
  0.9429536967E+00  0.1000000000E+01  0.1429536967E+00  0.2068553881E+01 -0.3353409865E-16 -0.7321745686E+00  0.6433099671E+15  0.2068549121E+01 -0.3353293518E-16 -0.7397548727E+00
  0.8469889352E+00  0.1000000000E+01  0.1429536967E+00  0.1767523795E+01 -0.4957652786E-16 -0.3829488707E+00  0.6433099671E+15  0.1766150060E+01 -0.4953024910E-16 -0.3858546265E+00
  0.8000000000E+00  0.1000000000E+01  0.1429536967E+00  0.1046539939E+01 -0.5517704033E-16 -0.3637684642E+00  0.6433099671E+15  0.1047087345E+01 -0.5520829131E-16 -0.3642859884E+00
  0.1200000000E+01  0.1000000000E+01  0.2570463033E+00  0.5559056174E+01 -0.5717384744E-17 -0.1780113488E+01  0.6433099671E+15  0.5564550659E+01 -0.5656456833E-17 -0.1773393688E+01
  0.1153011065E+01  0.1000000000E+01  0.2570463033E+00  0.5013390149E+01 -0.3833889185E-16 -0.2029115864E+01  0.6433099671E+15  0.5017510458E+01 -0.3863258048E-16 -0.2025181992E+01
  0.1057046303E+01  0.1000000000E+01  0.2570463033E+00  0.4157259006E+01 -0.3067462454E-16 -0.1632012588E+01  0.6433099671E+15  0.4154762099E+01 -0.3068819369E-16 -0.1629977207E+01
  0.9429536967E+00  0.1000000000E+01  0.2570463033E+00  0.3160951302E+01 -0.2959582141E-16 -0.1675780458E+01  0.6433099671E+15  0.3153845159E+01 -0.2919592772E-16 -0.1665952466E+01
  0.8469889352E+00  0.1000000000E+01  0.2570463033E+00  0.2587458130E+01 -0.1351316692E-16 -0.1036195702E+01  0.6433099671E+15  0.2581366017E+01 -0.1353595169E-16 -0.1021515853E+01
  0.8000000000E+00  0.1000000000E+01  0.2570463033E+00  0.2175869964E+01 -0.1228394230E-16 -0.9588097598E+00  0.6433099671E+15  0.2169482274E+01 -0.1227956763E-16 -0.9418878142E+00
  0.1200000000E+01  0.1000000000E+01  0.3530110648E+00  0.5897390788E+01  0.3359819106E-16 -0.2934919777E+01  0.6433099671E+15  0.5904524582E+01  0.3361684812E-16 -0.2929992715E+01
  0.1153011065E+01  0.1000000000E+01  0.3530110648E+00  0.5158755447E+01  0.1415904283E-16 -0.2867261821E+01  0.6433099671E+15  0.5166927973E+01  0.1407170355E-16 -0.2862734749E+01
  0.1057046303E+01  0.1000000000E+01  0.3530110648E+00  0.4415415184E+01 -0.6529340890E-17 -0.2502255909E+01  0.6433099671E+15  0.4408340534E+01 -0.6619625066E-17 -0.2495040520E+01
  0.9429536967E+00  0.1000000000E+01  0.3530110648E+00  0.3440112032E+01 -0.1352488225E-16 -0.2299352266E+01  0.6433099671E+15  0.3425244549E+01 -0.1315343806E-16 -0.2283113687E+01
  0.8469889352E+00  0.1000000000E+01  0.3530110648E+00  0.2934899309E+01 -0.1898139485E-18 -0.1686418430E+01  0.6433099671E+15  0.2926252636E+01 -0.6399787966E-18 -0.1664493126E+01
  0.8000000000E+00  0.1000000000E+01  0.3530110648E+00  0.2445926737E+01  0.2970053573E-17 -0.1493054968E+01  0.6433099671E+15  0.2436460037E+01  0.2978312092E-17 -0.1469555592E+01
  0.1200000000E+01  0.1000000000E+01  0.4000000000E+00  0.5631878960E+01  0.3944591756E-16 -0.3244186407E+01  0.6433099671E+15  0.5638475135E+01  0.3944647089E-16 -0.3245956516E+01
  0.1153011065E+01  0.1000000000E+01  0.4000000000E+00  0.5257765181E+01  0.3067405429E-16 -0.3365072708E+01  0.6433099671E+15  0.5264112395E+01  0.3080394034E-16 -0.3364780788E+01
  0.1057046303E+01  0.1000000000E+01  0.4000000000E+00  0.4376861911E+01  0.5128477561E-17 -0.2880236001E+01  0.6433099671E+15  0.4367486182E+01  0.5132629502E-17 -0.2874676386E+01
  0.9429536967E+00  0.1000000000E+01  0.4000000000E+00  0.3524837697E+01 -0.1218910375E-16 -0.2650099129E+01  0.6433099671E+15  0.3506426433E+01 -0.1176329612E-16 -0.2640845549E+01
  0.8469889352E+00  0.1000000000E+01  0.4000000000E+00  0.2905571244E+01 -0.7443897859E-17 -0.1961709361E+01  0.6433099671E+15  0.2894326549E+01 -0.7572785672E-17 -0.1944359986E+01
  0.8000000000E+00  0.1000000000E+01  0.4000000000E+00  0.2604731334E+01 -0.2804213202E-17 -0.1807354148E+01  0.6433099671E+15  0.2593872613E+01 -0.2793180174E-17 -0.1787205286E+01
ZONE I=6, J=6, K=1, F=POINT
  0.1600000000E+01  0.1000000000E+01  0.0000000000E+00  0.1326237829E+00 -0.9268636554E-18 -0.7251246402E-01  0.6433099671E+15  0.1305085724E+00 -0.1042161546E-17 -0.7212824543E-01
  0.1553011065E+01  0.1000000000E+01  0.0000000000E+00  0.1272420813E-01 -0.1426125921E-17  0.4509789215E-01  0.6433099671E+15  0.1131275743E-01 -0.1387521698E-17  0.4502490207E-01
  0.1457046303E+01  0.1000000000E+01  0.0000000000E+00 -0.4744116368E-02 -0.1545679129E-18 -0.3238376943E-02  0.6433099671E+15 -0.6111896566E-02 -0.1376200810E-18 -0.3235791776E-02
  0.1342953697E+01  0.1000000000E+01  0.0000000000E+00  0.8034187794E-02  0.5551215013E-18  0.2978058598E-01  0.6433099671E+15  0.6756863909E-02  0.4852806417E-18  0.2971766543E-01
  0.1246988935E+01  0.1000000000E+01  0.0000000000E+00 -0.4863961691E-02  0.1421663076E-18 -0.8249815466E-02  0.6433099671E+15 -0.5900451767E-02  0.1302741856E-18 -0.8310146022E-02
  0.1200000000E+01  0.1000000000E+01  0.0000000000E+00  0.6025181328E-01  0.6232080414E-19  0.3721133644E-01  0.6433099671E+15  0.5944865197E-01  0.6445049938E-19  0.3657171335E-01
  0.1600000000E+01  0.1000000000E+01  0.4698893521E-01  0.3002863998E+01 -0.8776542209E-16  0.2259097842E+00  0.6433099671E+15  0.3001115722E+01 -0.8773219849E-16  0.2279411255E+00
  0.1553011065E+01  0.1000000000E+01  0.4698893521E-01  0.3506831235E+01 -0.4337081502E-16 -0.2756383728E+00  0.6433099671E+15  0.3508877766E+01 -0.4331123088E-16 -0.2749218205E+00
  0.1457046303E+01  0.1000000000E+01  0.4698893521E-01  0.2551098991E+01 -0.4356914751E-17 -0.8373808436E-01  0.6433099671E+15  0.2554759301E+01 -0.4465390315E-17 -0.8657574036E-01
  0.1342953697E+01  0.1000000000E+01  0.4698893521E-01  0.2558219743E+01  0.2867390609E-16 -0.5493381368E-01  0.6433099671E+15  0.2562581714E+01  0.2870618210E-16 -0.6382954240E-01
  0.1246988935E+01  0.1000000000E+01  0.4698893521E-01  0.1980461346E+01 -0.6883760705E-17 -0.2345754681E-01  0.6433099671E+15  0.1985172398E+01 -0.6671213309E-17 -0.3841911918E-01
  0.1200000000E+01  0.1000000000E+01  0.4698893521E-01  0.2345372562E+01 -0.4646544499E-16 -0.2047082585E+00  0.6433099671E+15  0.2346835669E+01 -0.4656146897E-16 -0.2201827065E+00
  0.1600000000E+01  0.1000000000E+01  0.1429536967E+00  0.6392211125E+01 -0.2658258986E-15 -0.1777263230E+01  0.6433099671E+15  0.6376889831E+01 -0.2657590621E-15 -0.1766787480E+01
  0.1553011065E+01  0.1000000000E+01  0.1429536967E+00  0.8096934090E+01 -0.1411261352E-15 -0.9396153993E+00  0.6433099671E+15  0.8104421487E+01 -0.1415901464E-15 -0.9319142734E+00
  0.1457046303E+01  0.1000000000E+01  0.1429536967E+00  0.6065722842E+01  0.3180719446E-16 -0.9219738090E+00  0.6433099671E+15  0.6077018086E+01  0.3232755112E-16 -0.9234831464E+00
  0.1342953697E+01  0.1000000000E+01  0.1429536967E+00  0.6040346436E+01  0.1006668739E-15 -0.2096842105E+00  0.6433099671E+15  0.6050638534E+01  0.1010543317E-15 -0.2189351455E+00
  0.1246988935E+01  0.1000000000E+01  0.1429536967E+00  0.4673240453E+01  0.2612696059E-16 -0.7645848594E+00  0.6433099671E+15  0.4682169478E+01  0.2567046664E-16 -0.7752894316E+00
  0.1200000000E+01  0.1000000000E+01  0.1429536967E+00  0.5387816761E+01 -0.6246126931E-16 -0.6314563259E+00  0.6433099671E+15  0.5384448213E+01 -0.6241510892E-16 -0.6439881194E+00
  0.1600000000E+01  0.1000000000E+01  0.2570463033E+00  0.1135602882E+02  0.1054422988E-15 -0.3579699905E+01  0.6433099671E+15  0.1136916854E+02  0.1054069806E-15 -0.3569590193E+01
  0.1553011065E+01  0.1000000000E+01  0.2570463033E+00  0.1028623413E+02  0.1283033455E-15 -0.2497898182E+01  0.6433099671E+15  0.1030593743E+02  0.1284013697E-15 -0.2485459442E+01
  0.1457046303E+01  0.1000000000E+01  0.2570463033E+00  0.8933519319E+01  0.1859826279E-15 -0.2384027631E+01  0.6433099671E+15  0.8955365637E+01  0.1871301641E-15 -0.2378995376E+01
  0.1342953697E+01  0.1000000000E+01  0.2570463033E+00  0.7305914927E+01  0.1333862198E-15 -0.1259004201E+01  0.6433099671E+15  0.7318634728E+01  0.1340923060E-15 -0.1258400754E+01
  0.1246988935E+01  0.1000000000E+01  0.2570463033E+00  0.6045650912E+01  0.4359361241E-16 -0.2009282722E+01  0.6433099671E+15  0.6051756720E+01  0.4395783147E-16 -0.2003822792E+01
  0.1200000000E+01  0.1000000000E+01  0.2570463033E+00  0.5599464572E+01 -0.6000906131E-17 -0.1770535216E+01  0.6433099671E+15  0.5604854510E+01 -0.5937826557E-17 -0.1766583598E+01
  0.1600000000E+01  0.1000000000E+01  0.3530110648E+00  0.9862795260E+01  0.2094431476E-15 -0.4067297241E+01  0.6433099671E+15  0.9870872667E+01  0.2093188016E-15 -0.4060483083E+01
  0.1553011065E+01  0.1000000000E+01  0.3530110648E+00  0.1005015063E+02  0.2131361737E-15 -0.4000465404E+01  0.6433099671E+15  0.1007246520E+02  0.2132649610E-15 -0.3995392102E+01
  0.1457046303E+01  0.1000000000E+01  0.3530110648E+00  0.8834219500E+01  0.2001153793E-15 -0.3601286656E+01  0.6433099671E+15  0.8860782005E+01  0.2015766564E-15 -0.3596654706E+01
  0.1342953697E+01  0.1000000000E+01  0.3530110648E+00  0.7540314219E+01  0.1512017922E-15 -0.2811981398E+01  0.6433099671E+15  0.7552776727E+01  0.1515623875E-15 -0.2808362755E+01
  0.1246988935E+01  0.1000000000E+01  0.3530110648E+00  0.6109038068E+01  0.6454512987E-16 -0.2991744386E+01  0.6433099671E+15  0.6111563828E+01  0.6454145834E-16 -0.2987248294E+01
  0.1200000000E+01  0.1000000000E+01  0.3530110648E+00  0.5975527254E+01  0.3372178597E-16 -0.2935316085E+01  0.6433099671E+15  0.5978132407E+01  0.3370701006E-16 -0.2930099942E+01
  0.1600000000E+01  0.1000000000E+01  0.4000000000E+00  0.1004645867E+02  0.2115460154E-15 -0.4789315958E+01  0.6433099671E+15  0.1006088409E+02  0.2114474233E-15 -0.4797015015E+01
  0.1553011065E+01  0.1000000000E+01  0.4000000000E+00  0.9378151727E+01  0.2261212922E-15 -0.4041257593E+01  0.6433099671E+15  0.9402126815E+01  0.2258169024E-15 -0.4046384236E+01
  0.1457046303E+01  0.1000000000E+01  0.4000000000E+00  0.8735742314E+01  0.1946350418E-15 -0.4162703426E+01  0.6433099671E+15  0.8760571194E+01  0.1944940682E-15 -0.4163654418E+01
  0.1342953697E+01  0.1000000000E+01  0.4000000000E+00  0.7291887083E+01  0.1594297829E-15 -0.3237513669E+01  0.6433099671E+15  0.7305990253E+01  0.1600869350E-15 -0.3236635228E+01
  0.1246988935E+01  0.1000000000E+01  0.4000000000E+00  0.6228382400E+01  0.6530577942E-16 -0.3564996979E+01  0.6433099671E+15  0.6230303459E+01  0.6545466586E-16 -0.3565044510E+01
  0.1200000000E+01  0.1000000000E+01  0.4000000000E+00  0.5606413739E+01  0.3971047786E-16 -0.3232064486E+01  0.6433099671E+15  0.5613202215E+01  0.3969877898E-16 -0.3236588073E+01
ZONE I=6, J=6, K=1, F=POINT
  0.2000000000E+01  0.1000000000E+01  0.0000000000E+00  0.2402238300E+01  0.7404229163E-19  0.2123398365E+02  0.6433099671E+15  0.2429979551E+01  0.9444109783E-19  0.2215505564E+02
  0.1953011065E+01  0.1000000000E+01  0.0000000000E+00  0.1293666697E+01 -0.3736992781E-16 -0.1374432330E+00  0.6433099671E+15  0.1295972901E+01 -0.3607668895E-16 -0.1506629901E+00
  0.1857046303E+01  0.1000000000E+01  0.0000000000E+00 -0.3042928671E+00 -0.1866577739E-16  0.1518762759E+00  0.6433099671E+15 -0.3071558002E+00 -0.1929075625E-16  0.1503843270E+00
  0.1742953697E+01  0.1000000000E+01  0.0000000000E+00  0.1368204208E+00  0.2260061939E-18 -0.3715406120E-01  0.6433099671E+15  0.1349869921E+00  0.1082490365E-18 -0.3687056768E-01
  0.1646988935E+01  0.1000000000E+01  0.0000000000E+00 -0.1240795150E+00  0.3094024653E-18  0.6031633647E-01  0.6433099671E+15 -0.1266152623E+00  0.2863785705E-18  0.5956437207E-01
  0.1600000000E+01  0.1000000000E+01  0.0000000000E+00  0.9127260091E-01 -0.1006330927E-17 -0.8458579633E-01  0.6433099671E+15  0.8865072687E-01 -0.1123229837E-17 -0.8284133048E-01
  0.2000000000E+01  0.1000000000E+01  0.4698893521E-01 -0.1235770308E-01  0.7490118492E-18  0.4848464933E+02  0.6433099671E+15 -0.5529062725E-01  0.6884839043E-18  0.4865787728E+02
  0.1953011065E+01  0.1000000000E+01  0.4698893521E-01  0.1095996211E+02  0.1358251465E-15  0.1465766002E+01  0.6433099671E+15  0.1094770613E+02  0.1346215237E-15  0.1482377480E+01
  0.1857046303E+01  0.1000000000E+01  0.4698893521E-01  0.1162573650E+02  0.2879874451E-15 -0.1892125083E+01  0.6433099671E+15  0.1162750257E+02  0.2882477669E-15 -0.1892060146E+01
  0.1742953697E+01  0.1000000000E+01  0.4698893521E-01  0.5739476230E+01 -0.4136949381E-16 -0.6470515570E+00  0.6433099671E+15  0.5741399998E+01 -0.4101803799E-16 -0.6520367135E+00
  0.1646988935E+01  0.1000000000E+01  0.4698893521E-01  0.4463700743E+01 -0.1219971569E-15 -0.6324589013E+00  0.6433099671E+15  0.4460091181E+01 -0.1220038291E-15 -0.6306996562E+00
  0.1600000000E+01  0.1000000000E+01  0.4698893521E-01  0.2839459657E+01 -0.8493329130E-16  0.2117606764E+00  0.6433099671E+15  0.2846828145E+01 -0.8471335168E-16  0.2084932610E+00
  0.2000000000E+01  0.1000000000E+01  0.1429536967E+00 -0.2819217511E+00  0.2724882002E-17  0.5050542727E+02  0.6433099671E+15 -0.2576562170E+00  0.2744448210E-17  0.5044007425E+02
  0.1953011065E+01  0.1000000000E+01  0.1429536967E+00  0.2787570779E+01 -0.5116952086E-15  0.1637332395E+02  0.6433099671E+15  0.2773785178E+01 -0.5115941212E-15  0.1640895152E+02
  0.1857046303E+01  0.1000000000E+01  0.1429536967E+00  0.1270064580E+02 -0.2624721867E-15 -0.3639606436E+01  0.6433099671E+15  0.1270001322E+02 -0.2626535272E-15 -0.3633356774E+01
  0.1742953697E+01  0.1000000000E+01  0.1429536967E+00  0.9983889021E+01 -0.2802172793E-16 -0.4063570399E+01  0.6433099671E+15  0.9980578687E+01 -0.2885588478E-16 -0.4062862698E+01
  0.1646988935E+01  0.1000000000E+01  0.1429536967E+00  0.9363691925E+01 -0.1598221190E-15 -0.2037950508E+01  0.6433099671E+15  0.9354961610E+01 -0.1596630737E-15 -0.2027107929E+01
  0.1600000000E+01  0.1000000000E+01  0.1429536967E+00  0.6019439483E+01 -0.2824541668E-15 -0.1777421294E+01  0.6433099671E+15  0.6044696845E+01 -0.2827336997E-15 -0.1771431897E+01
  0.2000000000E+01  0.1000000000E+01  0.2570463033E+00  0.1918355003E-01  0.1125610437E-17  0.4987479801E+02  0.6433099671E+15  0.1809187827E-01  0.1090194265E-17  0.4987737981E+02