TITLE = "Generated from ../MESH/Convergence_0000000000.hmesh and Convergence_0000002500.hsol"
VARIABLES = "x","y","z","veloT_x","veloT_y","veloT_z","slr_4","velo_x","velo_y","velo_z"
ZONE I=6, J=6, K=1, F=POINT
  0.4000000000E+00  0.1000000000E+01  0.0000000000E+00 -0.1098580712E-01  0.2843034093E-19  0.6820435692E-02  0.6039277360E+15 -0.1190903554E-01  0.2837070607E-19  0.6878009939E-02
  0.3530110648E+00  0.1000000000E+01  0.0000000000E+00 -0.4198558093E-03  0.1093834498E-19 -0.5877891455E-03  0.6039277360E+15 -0.1179143450E-02  0.1139514791E-19 -0.5379150708E-03
  0.2570463033E+00  0.1000000000E+01  0.0000000000E+00  0.7235627675E-03  0.1797572806E-20  0.2291465268E-02  0.6039277360E+15  0.2082756021E-03  0.2023148728E-20  0.2333752579E-02
  0.1429536967E+00  0.1000000000E+01  0.0000000000E+00 -0.3209292154E-03  0.4088242107E-21 -0.1161002402E-02  0.6039277360E+15 -0.6248830295E-03  0.4512066746E-21 -0.1147775866E-02
  0.4698893521E-01  0.1000000000E+01  0.0000000000E+00  0.2164919331E-02 -0.2037470323E-20  0.1852107282E-02  0.6039277360E+15  0.2071305371E-02 -0.1959636281E-20  0.1883764872E-02
  0.0000000000E+00  0.1000000000E+01  0.0000000000E+00 -0.7460453525E-02  0.1422095224E-22  0.2046401427E-02  0.6039277360E+15 -0.7470061722E-02  0.1439988103E-22  0.2050132162E-02
  0.4000000000E+00  0.1000000000E+01  0.4698893521E-01  0.2647855661E+00  0.2706669715E-17 -0.5287777003E-01  0.6039277360E+15  0.2636518491E+00  0.2713428254E-17 -0.4685079596E-01
  0.3530110648E+00  0.1000000000E+01  0.4698893521E-01  0.1279658009E+00  0.2395228516E-17 -0.1507676705E-01  0.6039277360E+15  0.1269398568E+00  0.2400142253E-17 -0.9588604900E-02
  0.2570463033E+00  0.1000000000E+01  0.4698893521E-01  0.1020911046E+00  0.8165476949E-18 -0.2450511245E-01  0.6039277360E+15  0.1019757678E+00  0.8236796293E-18 -0.1991770924E-01
  0.1429536967E+00  0.1000000000E+01  0.4698893521E-01  0.7250982214E-02  0.1406319265E-18 -0.1368404418E-01  0.6039277360E+15  0.7886400491E-02  0.1435318505E-18 -0.1200370031E-01
  0.4698893521E-01  0.1000000000E+01  0.4698893521E-01 -0.5568145191E-03  0.1578287555E-19 -0.1001905822E-01  0.6039277360E+15 -0.2501617524E-03  0.1613129828E-19 -0.1016090894E-01
  0.0000000000E+00  0.1000000000E+01  0.4698893521E-01 -0.1810056558E-01  0.9386927997E-21  0.1919862324E-02  0.6039277360E+15 -0.1809203555E-01  0.9448651126E-21  0.2063247411E-02
  0.4000000000E+00  0.1000000000E+01  0.1429536967E+00  0.5641390220E+00  0.8786162790E-17 -0.1363543850E+00  0.6039277360E+15  0.5640969123E+00  0.8789557863E-17 -0.1296080511E+00
  0.3530110648E+00  0.1000000000E+01  0.1429536967E+00  0.3157876438E+00  0.5295947132E-17 -0.1727962381E+00  0.6039277360E+15  0.3147073046E+00  0.5249026653E-17 -0.1657582306E+00
  0.2570463033E+00  0.1000000000E+01  0.1429536967E+00  0.2250344652E+00  0.1674086351E-17 -0.1126110139E+00  0.6039277360E+15  0.2264657201E+00  0.1679523673E-17 -0.1054377489E+00
  0.1429536967E+00  0.1000000000E+01  0.1429536967E+00  0.3278267767E-01  0.4430409805E-18 -0.1213041181E+00  0.6039277360E+15  0.3701095230E-01  0.4457018791E-18 -0.1172747460E+00
  0.4698893521E-01  0.1000000000E+01  0.1429536967E+00 -0.6853530085E-02  0.7637160376E-19 -0.1415032529E-01  0.6039277360E+15 -0.4718086127E-02  0.7370931589E-19 -0.1369525697E-01
  0.0000000000E+00  0.1000000000E+01  0.1429536967E+00 -0.2139573671E-01  0.2949880539E-21 -0.1861113395E-02  0.6039277360E+15 -0.2134300449E-01  0.3750968309E-21 -0.1579248007E-02
  0.4000000000E+00  0.1000000000E+01  0.2570463033E+00  0.5990851662E+00  0.1896839582E-17 -0.3733030652E+00  0.6039277360E+15  0.5985037066E+00  0.1887180617E-17 -0.3679298824E+00
  0.3530110648E+00  0.1000000000E+01  0.2570463033E+00  0.4402853159E+00  0.5547670877E-18 -0.4165363805E+00  0.6039277360E+15  0.4391210005E+00  0.6258053714E-18 -0.4119049509E+00
  0.2570463033E+00  0.1000000000E+01  0.2570463033E+00  0.2716385067E+00  0.7184005635E-18 -0.2912071048E+00  0.6039277360E+15  0.2743777306E+00  0.7183817641E-18 -0.2885602880E+00
  0.1429536967E+00  0.1000000000E+01  0.2570463033E+00  0.7144806546E-01  0.7255534626E-18 -0.2807154036E+00  0.6039277360E+15  0.7899418282E-01  0.7255837656E-18 -0.2798031907E+00
  0.4698893521E-01  0.1000000000E+01  0.2570463033E+00  0.5459363850E-02  0.7022522395E-18 -0.5460626186E-01  0.6039277360E+15  0.1012144772E-01  0.6964484924E-18 -0.5507799770E-01
  0.0000000000E+00  0.1000000000E+01  0.2570463033E+00 -0.1425187599E-01 -0.4334389038E-20 -0.2084108374E-02  0.6039277360E+15 -0.1422406725E-01 -0.4407317168E-20 -0.1742265333E-02
  0.4000000000E+00  0.1000000000E+01  0.3530110648E+00  0.5870288379E+00  0.1755049535E-17 -0.5926428919E+00  0.6039277360E+15  0.5899909054E+00  0.1755458331E-17 -0.5839570264E+00
  0.3530110648E+00  0.1000000000E+01  0.3530110648E+00  0.4241644851E+00  0.1428369755E-17 -0.6077061113E+00  0.6039277360E+15  0.4277191631E+00  0.1431167758E-17 -0.6024901813E+00
  0.2570463033E+00  0.1000000000E+01  0.3530110648E+00  0.2571846952E+00  0.5940542519E-18 -0.4686324891E+00  0.6039277360E+15  0.2625617040E+00  0.5913925412E-18 -0.4686075954E+00
  0.1429536967E+00  0.1000000000E+01  0.3530110648E+00  0.6484189233E-01  0.1083627555E-17 -0.4068090520E+00  0.6039277360E+15  0.7281868623E-01  0.1095378185E-17 -0.4080786595E+00
  0.4698893521E-01  0.1000000000E+01  0.3530110648E+00  0.7555227796E-02  0.3022165311E-18 -0.1137631022E+00  0.6039277360E+15  0.1263966308E-01  0.3143095440E-18 -0.1151140013E+00
  0.0000000000E+00  0.1000000000E+01  0.3530110648E+00 -0.1433711586E-01  0.4491622921E-20 -0.2596129719E-02  0.6039277360E+15 -0.1433143675E-01  0.4174911848E-20 -0.2402501266E-02
  0.4000000000E+00  0.1000000000E+01  0.4000000000E+00  0.5482980557E+00  0.3671747624E-17 -0.6957439246E+00  0.6039277360E+15  0.5556600487E+00  0.3664542079E-17 -0.6854642021E+00
  0.3530110648E+00  0.1000000000E+01  0.4000000000E+00  0.4363118195E+00  0.3103423621E-17 -0.7051319062E+00  0.6039277360E+15  0.4432872248E+00  0.3112936142E-17 -0.6991145874E+00
  0.2570463033E+00  0.1000000000E+01  0.4000000000E+00  0.2478257250E+00  0.2829854287E-18 -0.5577827305E+00  0.6039277360E+15  0.2544053125E+00  0.2768236183E-18 -0.5549281729E+00
  0.1429536967E+00  0.1000000000E+01  0.4000000000E+00  0.6958959971E-01  0.1039857923E-17 -0.4747077256E+00  0.6039277360E+15  0.7765594487E-01  0.1080887102E-17 -0.4731601132E+00
  0.4698893521E-01  0.1000000000E+01  0.4000000000E+00  0.2469087910E-02  0.2587290708E-18 -0.1418694354E+00  0.6039277360E+15  0.8436057672E-02  0.2575358168E-18 -0.1423437151E+00
  0.0000000000E+00  0.1000000000E+01  0.4000000000E+00 -0.6780940459E-02  0.7907327175E-20 -0.3783851899E-02  0.6039277360E+15 -0.6492598023E-02  0.8080249871E-20 -0.3702136552E-02
ZONE I=6, J=6, K=1, F=POINT
  0.8000000000E+00  0.1000000000E+01  0.0000000000E+00  0.1778909704E-01 -0.7942258829E-19 -0.1170907727E-01  0.6039277360E+15  0.1630217714E-01 -0.8197366490E-19 -0.1106298458E-01
  0.7530110648E+00  0.1000000000E+01  0.0000000000E+00  0.2556313159E-02  0.1018348260E-18  0.5843095000E-02  0.6039277360E+15  0.9929126921E-03  0.6751460299E-19  0.6056687401E-02
  0.6570463033E+00  0.1000000000E+01  0.0000000000E+00  0.1205753921E-03  0.3077453234E-19  0.8259791992E-04  0.6039277360E+15 -0.1323402640E-02  0.9899320028E-20  0.5700715172E-04
  0.5429536967E+00  0.1000000000E+01  0.0000000000E+00  0.1328935529E-02  0.4371735623E-19  0.6884002761E-02  0.6039277360E+15  0.1684624610E-03  0.1079773053E-19  0.6851639242E-02
  0.4469889352E+00  0.1000000000E+01  0.0000000000E+00 -0.1353050343E-02 -0.1589173789E-19  0.4103612932E-03  0.6039277360E+15 -0.2265867589E-02 -0.4349226795E-19  0.4387095183E-03
  0.4000000000E+00  0.1000000000E+01  0.0000000000E+00  0.1519330531E-01  0.3203176113E-19  0.6514124997E-02  0.6039277360E+15  0.1446955308E-01  0.3201373431E-19  0.6570189099E-02
  0.8000000000E+00  0.1000000000E+01  0.4698893521E-01  0.3127257652E+00 -0.2532743822E-16 -0.6664426197E-02  0.6039277360E+15  0.3089531079E+00 -0.2527871820E-16  0.9874653375E-02
  0.7530110648E+00  0.1000000000E+01  0.4698893521E-01  0.5092370774E+00 -0.2484367922E-16 -0.6705453018E-01  0.6039277360E+15  0.5063111223E+00 -0.2469426014E-16 -0.5081507067E-01
  0.6570463033E+00  0.1000000000E+01  0.4698893521E-01  0.2963746464E+00 -0.5321804917E-17 -0.3733349431E-01  0.6039277360E+15  0.2941675554E+00 -0.5329687941E-17 -0.2352951109E-01
  0.5429536967E+00  0.1000000000E+01  0.4698893521E-01  0.3275604528E+00  0.4140697293E-17 -0.2502507103E-01  0.6039277360E+15  0.3259786543E+00  0.4120259793E-17 -0.1507986472E-01
  0.4469889352E+00  0.1000000000E+01  0.4698893521E-01  0.2010132251E+00  0.3696582386E-17 -0.1190687569E-01  0.6039277360E+15  0.1999653421E+00  0.3697437541E-17 -0.4860732536E-02
  0.4000000000E+00  0.1000000000E+01  0.4698893521E-01  0.3062678501E+00  0.2468713454E-17 -0.5364488786E-01  0.6039277360E+15  0.3052989705E+00  0.2474369498E-17 -0.4760396788E-01
  0.8000000000E+00  0.1000000000E+01  0.1429536967E+00  0.9229806773E+00 -0.5633017991E-16 -0.3667572722E+00  0.6039277360E+15  0.9203973087E+00 -0.5639013263E-16 -0.3381142983E+00
  0.7530110648E+00  0.1000000000E+01  0.1429536967E+00  0.1233286621E+01 -0.3639644493E-16 -0.2291004065E+00  0.6039277360E+15  0.1234607167E+01 -0.3658343124E-16 -0.2029666166E+00
  0.6570463033E+00  0.1000000000E+01  0.1429536967E+00  0.8198529595E+00 -0.6125139759E-17 -0.2295287097E+00  0.6039277360E+15  0.8237750012E+00 -0.6271693667E-17 -0.2115265835E+00
  0.5429536967E+00  0.1000000000E+01  0.1429536967E+00  0.7710853381E+00  0.8483844333E-17 -0.8570037417E-01  0.6039277360E+15  0.7739024451E+00  0.8570349280E-17 -0.7581764022E-01
  0.4469889352E+00  0.1000000000E+01  0.1429536967E+00  0.4856342468E+00  0.8903126586E-17 -0.1611022516E+00  0.6039277360E+15  0.4866928815E+00  0.8859690740E-17 -0.1541459626E+00
  0.4000000000E+00  0.1000000000E+01  0.1429536967E+00  0.6145807586E+00  0.9483846081E-17 -0.1358233932E+00  0.6039277360E+15  0.6146492863E+00  0.9491229964E-17 -0.1290721897E+00
  0.8000000000E+00  0.1000000000E+01  0.2570463033E+00  0.1711107594E+01 -0.1710448470E-16 -0.8386205041E+00  0.6039277360E+15  0.1711430702E+01 -0.1711365792E-16 -0.8162568871E+00
  0.7530110648E+00  0.1000000000E+01  0.2570463033E+00  0.1620732209E+01 -0.1372089821E-16 -0.6007532849E+00  0.6039277360E+15  0.1629513371E+01 -0.1344705102E-16 -0.5789589613E+00
  0.6570463033E+00  0.1000000000E+01  0.2570463033E+00  0.1219911727E+01 -0.6810538851E-17 -0.5618214866E+00  0.6039277360E+15  0.1233955527E+01 -0.7195997677E-17 -0.5449880490E+00
  0.5429536967E+00  0.1000000000E+01  0.2570463033E+00  0.9407418197E+00  0.4001246833E-18 -0.3183200926E+00  0.6039277360E+15  0.9496872352E+00  0.5470621342E-18 -0.3097790550E+00
  0.4469889352E+00  0.1000000000E+01  0.2570463033E+00  0.6552073484E+00  0.1234296163E-17 -0.4209876453E+00  0.6039277360E+15  0.6569062118E+00  0.1308714965E-17 -0.4156150475E+00
  0.4000000000E+00  0.1000000000E+01  0.2570463033E+00  0.6296079568E+00  0.1921636371E-17 -0.3726679961E+00  0.6039277360E+15  0.6287463295E+00  0.1913452495E-17 -0.3673293535E+00
  0.8000000000E+00  0.1000000000E+01  0.3530110648E+00  0.1748763246E+01 -0.3983764043E-17 -0.1203617500E+01  0.6039277360E+15  0.1746459912E+01 -0.3962937015E-17 -0.1186483631E+01
  0.7530110648E+00  0.1000000000E+01  0.3530110648E+00  0.1702165315E+01  0.2517671796E-17 -0.1006595397E+01  0.6039277360E+15  0.1707822081E+01  0.2803442968E-17 -0.9854643226E+00
  0.6570463033E+00  0.1000000000E+01  0.3530110648E+00  0.1288524055E+01 -0.3875179838E-17 -0.8669869634E+00  0.6039277360E+15  0.1306792147E+01 -0.4853989817E-17 -0.8412825110E+00
  0.5429536967E+00  0.1000000000E+01  0.3530110648E+00  0.9672327112E+00 -0.3007816379E-17 -0.5907831284E+00  0.6039277360E+15  0.9831295826E+00 -0.4140983721E-17 -0.5723180627E+00
  0.4469889352E+00  0.1000000000E+01  0.3530110648E+00  0.6258295529E+00  0.1560071676E-17 -0.6351864648E+00  0.6039277360E+15  0.6302327425E+00  0.1462782755E-17 -0.6235357145E+00
  0.4000000000E+00  0.1000000000E+01  0.3530110648E+00  0.6195542642E+00  0.1733247850E-17 -0.5924566683E+00  0.6039277360E+15  0.6217498255E+00  0.1733797031E-17 -0.5837715161E+00
  0.8000000000E+00  0.1000000000E+01  0.4000000000E+00  0.1771154208E+01 -0.1108571604E-16 -0.1421990180E+01  0.6039277360E+15  0.1766407444E+01 -0.1108855579E-16 -0.1402406004E+01
  0.7530110648E+00  0.1000000000E+01  0.4000000000E+00  0.1605695794E+01 -0.6584305242E-17 -0.1165204888E+01  0.6039277360E+15  0.1606449429E+01 -0.6525737430E-17 -0.1141220841E+01
  0.6570463033E+00  0.1000000000E+01  0.4000000000E+00  0.1252110066E+01 -0.3986240597E-17 -0.1017249245E+01  0.6039277360E+15  0.1270536828E+01 -0.3773037192E-17 -0.9864190316E+00
  0.5429536967E+00  0.1000000000E+01  0.4000000000E+00  0.9180336505E+00  0.2377375839E-17 -0.7520865979E+00  0.6039277360E+15  0.9383208092E+00  0.3231659696E-17 -0.7276552284E+00
  0.4469889352E+00  0.1000000000E+01  0.4000000000E+00  0.6533953094E+00  0.3667132344E-17 -0.7562139843E+00  0.6039277360E+15  0.6612624306E+00  0.3701716612E-17 -0.7404443778E+00
  0.4000000000E+00  0.1000000000E+01  0.4000000000E+00  0.5598374786E+00  0.3691420005E-17 -0.6949955380E+00  0.6039277360E+15  0.5671321423E+00  0.3687690702E-17 -0.6847648259E+00
ZONE I=6, J=6, K=1, F=POINT
  0.1200000000E+01  0.1000000000E+01  0.0000000000E+00 -0.3229280638E-01  0.5952702010E-19  0.3677036566E-01  0.6039277360E+15 -0.3391743338E-01  0.6042561631E-19  0.3660742545E-01
  0.1153011065E+01  0.1000000000E+01  0.0000000000E+00 -0.5467506892E-02 -0.2202947554E-18 -0.9659075762E-02  0.6039277360E+15 -0.7005018234E-02 -0.2967046690E-18 -0.9646915439E-02
  0.1057046303E+01  0.1000000000E+01  0.0000000000E+00  0.2031934083E-02  0.1948883719E-19  0.6042726404E-02  0.6039277360E+15  0.4829510126E-03 -0.2155649527E-19  0.6001499404E-02
  0.9429536967E+00  0.1000000000E+01  0.0000000000E+00 -0.2321268594E-02  0.1301326324E-19 -0.8209171627E-02  0.6039277360E+15 -0.3894946315E-02  0.1066432742E-19 -0.8208877908E-02
  0.8469889352E+00  0.1000000000E+01  0.0000000000E+00  0.3382878725E-02 -0.1434643598E-19  0.5370253603E-02  0.6039277360E+15  0.1796731193E-02 -0.1660767429E-19  0.5477290506E-02
  0.8000000000E+00  0.1000000000E+01  0.0000000000E+00 -0.2702309944E-01 -0.8884893234E-19 -0.1118046315E-01  0.6039277360E+15 -0.2874209184E-01 -0.9168175615E-19 -0.1055235652E-01
  0.1200000000E+01  0.1000000000E+01  0.4698893521E-01  0.2055307012E+01 -0.4184457634E-16 -0.1950059776E+00  0.6039277360E+15  0.2050658392E+01 -0.4161484060E-16 -0.1836922975E+00
  0.1153011065E+01  0.1000000000E+01  0.4698893521E-01  0.1390762521E+01 -0.2671596626E-16 -0.5075040312E-01  0.6039277360E+15  0.1385808002E+01 -0.2657068210E-16 -0.3903102877E-01
  0.1057046303E+01  0.1000000000E+01  0.4698893521E-01  0.1285433452E+01 -0.1297011220E-16 -0.9445830086E-01  0.6039277360E+15  0.1280423167E+01 -0.1301305843E-16 -0.8212426813E-01
  0.9429536967E+00  0.1000000000E+01  0.4698893521E-01  0.7146512711E+00 -0.1635893379E-16 -0.8867718900E-01  0.6039277360E+15  0.7093730625E+00 -0.1620007681E-16 -0.7380417156E-01
  0.8469889352E+00  0.1000000000E+01  0.4698893521E-01  0.6337419546E+00 -0.2967826534E-16 -0.9159432338E-01  0.6039277360E+15  0.6288650612E+00 -0.2947525787E-16 -0.7474025631E-01
  0.8000000000E+00  0.1000000000E+01  0.4698893521E-01  0.2525703075E+00 -0.2464013131E-16 -0.4603907056E-02  0.6039277360E+15  0.2485152010E+00 -0.2459334561E-16  0.1188561367E-01
  0.1200000000E+01  0.1000000000E+01  0.1429536967E+00  0.4601395435E+01 -0.5898006007E-16 -0.5613228394E+00  0.6039277360E+15  0.4597816312E+01 -0.5877272756E-16 -0.5492088485E+00
  0.1153011065E+01  0.1000000000E+01  0.1429536967E+00  0.3199413779E+01 -0.6860384616E-16 -0.7674925305E+00  0.6039277360E+15  0.3193941072E+01 -0.6905765189E-16 -0.7538930954E+00
  0.1057046303E+01  0.1000000000E+01  0.1429536967E+00  0.2905439906E+01 -0.4207882393E-16 -0.5640151502E+00  0.6039277360E+15  0.2897220454E+01 -0.4205398880E-16 -0.5466258711E+00
  0.9429536967E+00  0.1000000000E+01  0.1429536967E+00  0.1748729227E+01 -0.3772623003E-16 -0.6959873542E+00  0.6039277360E+15  0.1738948284E+01 -0.3770403451E-16 -0.6708671835E+00
  0.8469889352E+00  0.1000000000E+01  0.1429536967E+00  0.1528558101E+01 -0.5336427500E-16 -0.3790890601E+00  0.6039277360E+15  0.1523114352E+01 -0.5338050671E-16 -0.3501753945E+00
  0.8000000000E+00  0.1000000000E+01  0.1429536967E+00  0.8399348995E+00 -0.5852643834E-16 -0.3683166532E+00  0.6039277360E+15  0.8391564435E+00 -0.5859355002E-16 -0.3396666912E+00
  0.1200000000E+01  0.1000000000E+01  0.2570463033E+00  0.4395809988E+01 -0.1288143351E-16 -0.1537744206E+01  0.6039277360E+15  0.4384375013E+01 -0.1283443929E-16 -0.1536594889E+01
  0.1153011065E+01  0.1000000000E+01  0.2570463033E+00  0.3930090427E+01 -0.5051393030E-16 -0.1780557728E+01  0.6039277360E+15  0.3918102745E+01 -0.4906990931E-16 -0.1777078488E+01
  0.1057046303E+01  0.1000000000E+01  0.2570463033E+00  0.3247051662E+01 -0.4077679576E-16 -0.1392718515E+01  0.6039277360E+15  0.3231426686E+01 -0.4081573828E-16 -0.1380783818E+01
  0.9429536967E+00  0.1000000000E+01  0.2570463033E+00  0.2449335113E+01 -0.3938813424E-16 -0.1474450378E+01  0.6039277360E+15  0.2433223930E+01 -0.3850050648E-16 -0.1456831993E+01
  0.8469889352E+00  0.1000000000E+01  0.2570463033E+00  0.2022524985E+01 -0.1928565956E-16 -0.8958879814E+00  0.6039277360E+15  0.2014895449E+01 -0.1927974247E-16 -0.8746970078E+00
  0.8000000000E+00  0.1000000000E+01  0.2570463033E+00  0.1673312342E+01 -0.1728140058E-16 -0.8409910043E+00  0.6039277360E+15  0.1673794510E+01 -0.1727633183E-16 -0.8183393848E+00
  0.1200000000E+01  0.1000000000E+01  0.3530110648E+00  0.4323192258E+01  0.1927448422E-16 -0.2542210400E+01  0.6039277360E+15  0.4310863299E+01  0.1930396861E-16 -0.2541985316E+01
  0.1153011065E+01  0.1000000000E+01  0.3530110648E+00  0.3687246939E+01 -0.1622287311E-17 -0.2452851970E+01  0.6039277360E+15  0.3666132609E+01 -0.1317443911E-17 -0.2449267659E+01
  0.1057046303E+01  0.1000000000E+01  0.3530110648E+00  0.3138408501E+01 -0.2009856521E-16 -0.2079271746E+01  0.6039277360E+15  0.3117145975E+01 -0.2023399085E-16 -0.2067973618E+01
  0.9429536967E+00  0.1000000000E+01  0.3530110648E+00  0.2404616745E+01 -0.2550614775E-16 -0.1910169742E+01  0.6039277360E+15  0.2387170490E+01 -0.2501322447E-16 -0.1897200316E+01
  0.8469889352E+00  0.1000000000E+01  0.3530110648E+00  0.2104718218E+01 -0.7120895673E-17 -0.1365451256E+01  0.6039277360E+15  0.2093137603E+01 -0.7610519017E-17 -0.1350497554E+01
  0.8000000000E+00  0.1000000000E+01  0.3530110648E+00  0.1702020030E+01 -0.3938089106E-17 -0.1203813388E+01  0.6039277360E+15  0.1700856462E+01 -0.3901506192E-17 -0.1186739476E+01
  0.1200000000E+01  0.1000000000E+01  0.4000000000E+00  0.3899334539E+01  0.2173589572E-16 -0.2795741788E+01  0.6039277360E+15  0.3883809506E+01  0.2175740941E-16 -0.2787939247E+01
  0.1153011065E+01  0.1000000000E+01  0.4000000000E+00  0.3629496101E+01  0.1346589389E-16 -0.2885361976E+01  0.6039277360E+15  0.3604699206E+01  0.1315488633E-16 -0.2875058756E+01
  0.1057046303E+01  0.1000000000E+01  0.4000000000E+00  0.2953085760E+01 -0.1035075417E-16 -0.2371714503E+01  0.6039277360E+15  0.2929991049E+01 -0.1040704119E-16 -0.2358038196E+01
  0.9429536967E+00  0.1000000000E+01  0.4000000000E+00  0.2357970874E+01 -0.2544522223E-16 -0.2177618506E+01  0.6039277360E+15  0.2340077964E+01 -0.2478428439E-16 -0.2160276561E+01
  0.8469889352E+00  0.1000000000E+01  0.4000000000E+00  0.1967126123E+01 -0.1664173124E-16 -0.1550081720E+01  0.6039277360E+15  0.1954114120E+01 -0.1688843613E-16 -0.1532364856E+01
  0.8000000000E+00  0.1000000000E+01  0.4000000000E+00  0.1766808213E+01 -0.1107199217E-16 -0.1425111188E+01  0.6039277360E+15  0.1762126136E+01 -0.1107001349E-16 -0.1405235003E+01
ZONE I=6, J=6, K=1, F=POINT
  0.1600000000E+01  0.1000000000E+01  0.0000000000E+00  0.1293667930E+00 -0.8800804244E-18 -0.7243993237E-01  0.6039277360E+15  0.1276616895E+00 -0.1006262396E-17 -0.7235842574E-01
  0.1553011065E+01  0.1000000000E+01  0.0000000000E+00  0.8935943788E-02 -0.1245136184E-17  0.4521622550E-01  0.6039277360E+15  0.7442936940E-02 -0.1203664431E-17  0.4510658565E-01
  0.1457046303E+01  0.1000000000E+01  0.0000000000E+00 -0.8617784712E-02 -0.4821953413E-19 -0.3368519627E-02  0.6039277360E+15 -0.1035834757E-01 -0.2896696762E-19 -0.3287250461E-02
  0.1342953697E+01  0.1000000000E+01  0.0000000000E+00  0.4221725662E-02  0.3446144281E-18  0.2984617679E-01  0.6039277360E+15  0.2547654245E-02  0.2523024224E-18  0.2972697472E-01
  0.1246988935E+01  0.1000000000E+01  0.0000000000E+00 -0.8542065385E-02  0.1131991918E-18 -0.8171151562E-02  0.6039277360E+15 -0.1029404087E-01  0.1115315750E-18 -0.8142219438E-02
  0.1200000000E+01  0.1000000000E+01  0.0000000000E+00  0.5718306510E-01  0.6368268129E-19  0.3683084834E-01  0.6039277360E+15  0.5542286188E-01  0.6429471642E-19  0.3666285741E-01
  0.1600000000E+01  0.1000000000E+01  0.4698893521E-01  0.2940593297E+01 -0.8972393220E-16  0.1962525414E+00  0.6039277360E+15  0.2933993431E+01 -0.8956902273E-16  0.2039524595E+00
  0.1553011065E+01  0.1000000000E+01  0.4698893521E-01  0.3369976464E+01 -0.4541432959E-16 -0.3037915495E+00  0.6039277360E+15  0.3364451688E+01 -0.4558770615E-16 -0.2963568982E+00
  0.1457046303E+01  0.1000000000E+01  0.4698893521E-01  0.2346732984E+01 -0.5572378236E-17 -0.9997942581E-01  0.6039277360E+15  0.2341278088E+01 -0.5388474876E-17 -0.9365990886E-01
  0.1342953697E+01  0.1000000000E+01  0.4698893521E-01  0.2320670506E+01  0.2955316914E-16 -0.6309679161E-01  0.6039277360E+15  0.2314090530E+01  0.2949738488E-16 -0.5524105598E-01
  0.1246988935E+01  0.1000000000E+01  0.4698893521E-01  0.1772067831E+01 -0.5871624583E-17 -0.1966736775E-01  0.6039277360E+15  0.1765778187E+01 -0.6143183669E-17 -0.9065036441E-02
  0.1200000000E+01  0.1000000000E+01  0.4698893521E-01  0.2153568068E+01 -0.4607019038E-16 -0.2006631946E+00  0.6039277360E+15  0.2146926065E+01 -0.4580525909E-16 -0.1890028264E+00
  0.1600000000E+01  0.1000000000E+01  0.1429536967E+00  0.5926132434E+01 -0.2680706687E-15 -0.2003029974E+01  0.6039277360E+15  0.5904463095E+01 -0.2684203210E-15 -0.1994306008E+01
  0.1553011065E+01  0.1000000000E+01  0.1429536967E+00  0.7521829109E+01 -0.1493114404E-15 -0.1126185641E+01  0.6039277360E+15  0.7516429987E+01 -0.1493320919E-15 -0.1117165209E+01
  0.1457046303E+01  0.1000000000E+01  0.1429536967E+00  0.5352680192E+01  0.3118412279E-16 -0.1011573642E+01  0.6039277360E+15  0.5348458111E+01  0.3072119118E-16 -0.1002078744E+01
  0.1342953697E+01  0.1000000000E+01  0.1429536967E+00  0.5293927535E+01  0.1031001540E-15 -0.1999735626E+00  0.6039277360E+15  0.5285646817E+01  0.1028099230E-15 -0.1908958374E+00
  0.1246988935E+01  0.1000000000E+01  0.1429536967E+00  0.4000864335E+01  0.2695432746E-16 -0.6869971831E+00  0.6039277360E+15  0.3992618856E+01  0.2768378123E-16 -0.6761072889E+00
  0.1200000000E+01  0.1000000000E+01  0.1429536967E+00  0.4766429907E+01 -0.6314264872E-16 -0.5562461794E+00  0.6039277360E+15  0.4753434790E+01 -0.6283234697E-16 -0.5446757491E+00
  0.1600000000E+01  0.1000000000E+01  0.2570463033E+00  0.1026407356E+02  0.7920304732E-16 -0.4134045163E+01  0.6039277360E+15  0.1026198393E+02  0.7912996166E-16 -0.4140155041E+01
  0.1553011065E+01  0.1000000000E+01  0.2570463033E+00  0.9075083289E+01  0.1040017311E-15 -0.2935050849E+01  0.6039277360E+15  0.9068944911E+01  0.1038878793E-15 -0.2934748244E+01
  0.1457046303E+01  0.1000000000E+01  0.2570463033E+00  0.7577857175E+01  0.1775255811E-15 -0.2575134799E+01  0.6039277360E+15  0.7573867211E+01  0.1771608020E-15 -0.2572218166E+01
  0.1342953697E+01  0.1000000000E+01  0.2570463033E+00  0.5953088505E+01  0.1322443200E-15 -0.1182871996E+01  0.6039277360E+15  0.5948405671E+01  0.1319361213E-15 -0.1181951166E+01
  0.1246988935E+01  0.1000000000E+01  0.2570463033E+00  0.4802835137E+01  0.3989507386E-16 -0.1781328429E+01  0.6039277360E+15  0.4792815234E+01  0.3937441043E-16 -0.1780964551E+01
  0.1200000000E+01  0.1000000000E+01  0.2570463033E+00  0.4435728679E+01 -0.1320802862E-16 -0.1529133432E+01  0.6039277360E+15  0.4424444502E+01 -0.1314607218E-16 -0.1530209767E+01
  0.1600000000E+01  0.1000000000E+01  0.3530110648E+00  0.8321350371E+01  0.1554364524E-15 -0.4921360979E+01  0.6039277360E+15  0.8308510292E+01  0.1554408241E-15 -0.4919993433E+01
  0.1553011065E+01  0.1000000000E+01  0.3530110648E+00  0.8382511835E+01  0.1685027630E-15 -0.4661135032E+01  0.6039277360E+15  0.8373286536E+01  0.1684316196E-15 -0.4660909575E+01
  0.1457046303E+01  0.1000000000E+01  0.3530110648E+00  0.7027280529E+01  0.1770348645E-15 -0.3856600084E+01  0.6039277360E+15  0.7023563180E+01  0.1767035555E-15 -0.3857953654E+01
  0.1342953697E+01  0.1000000000E+01  0.3530110648E+00  0.5750606346E+01  0.1393515501E-15 -0.2669443068E+01  0.6039277360E+15  0.5747239259E+01  0.1392366051E-15 -0.2669695721E+01
  0.1246988935E+01  0.1000000000E+01  0.3530110648E+00  0.4443278834E+01  0.5265216935E-16 -0.2635390983E+01  0.6039277360E+15  0.4433821600E+01  0.5305050201E-16 -0.2635164890E+01
  0.1200000000E+01  0.1000000000E+01  0.3530110648E+00  0.4399994012E+01  0.1936021483E-16 -0.2542896015E+01  0.6039277360E+15  0.4384729524E+01  0.1936521785E-16 -0.2542261435E+01
  0.1600000000E+01  0.1000000000E+01  0.4000000000E+00  0.8342214786E+01  0.1482529751E-15 -0.5803905298E+01  0.6039277360E+15  0.8332081369E+01  0.1482058371E-15 -0.5796499843E+01
  0.1553011065E+01  0.1000000000E+01  0.4000000000E+00  0.7545516907E+01  0.1731432497E-15 -0.4806680882E+01  0.6039277360E+15  0.7540290712E+01  0.1733479001E-15 -0.4800940025E+01
  0.1457046303E+01  0.1000000000E+01  0.4000000000E+00  0.6758521552E+01  0.1614593550E-15 -0.4445075459E+01  0.6039277360E+15  0.6754163109E+01  0.1615389404E-15 -0.4443202585E+01
  0.1342953697E+01  0.1000000000E+01  0.4000000000E+00  0.5337170541E+01  0.1419027264E-15 -0.3059433306E+01  0.6039277360E+15  0.5333774841E+01  0.1416911948E-15 -0.3056545429E+01
  0.1246988935E+01  0.1000000000E+01  0.4000000000E+00  0.4401714665E+01  0.4963687921E-16 -0.3162129542E+01  0.6039277360E+15  0.4391341125E+01  0.4982823405E-16 -0.3155273579E+01
  0.1200000000E+01  0.1000000000E+01  0.4000000000E+00  0.3873777164E+01  0.2199510182E-16 -0.2784782634E+01  0.6039277360E+15  0.3859842756E+01  0.2199982038E-16 -0.2778968481E+01
ZONE I=6, J=6, K=1, F=POINT
  0.2000000000E+01  0.1000000000E+01  0.0000000000E+00  0.2402618879E+01  0.7354155630E-19  0.2123421599E+02  0.6039277360E+15  0.2430383567E+01  0.9410422138E-19  0.2215523286E+02
  0.1953011065E+01  0.1000000000E+01  0.0000000000E+00  0.1291104830E+01 -0.3736349582E-16 -0.1369503686E+00  0.6039277360E+15  0.1294267210E+01 -0.3608681063E-16 -0.1502881809E+00
  0.1857046303E+01  0.1000000000E+01  0.0000000000E+00 -0.3073567051E+00 -0.1886314668E-16  0.1519589915E+00  0.6039277360E+15 -0.3091752204E+00 -0.1941150389E-16  0.1505512146E+00
  0.1742953697E+01  0.1000000000E+01  0.0000000000E+00  0.1338415066E+00  0.2406259414E-18 -0.3774761710E-01  0.6039277360E+15  0.1334775743E+00  0.1371729825E-18 -0.3737877624E-01
  0.1646988935E+01  0.1000000000E+01  0.0000000000E+00 -0.1278490131E+00  0.3579549287E-18  0.6066699455E-01  0.6039277360E+15 -0.1287934684E+00  0.3236157195E-18  0.5972984478E-01
  0.1600000000E+01  0.1000000000E+01  0.0000000000E+00  0.8818678672E-01 -0.9580236338E-18 -0.8465015854E-01  0.6039277360E+15  0.8615242080E-01 -0.1086405683E-17 -0.8318287902E-01
  0.2000000000E+01  0.1000000000E+01  0.4698893521E-01 -0.1122393929E-01  0.7430826698E-18  0.4848251367E+02  0.6039277360E+15 -0.5397494368E-01  0.6856533817E-18  0.4865647744E+02
  0.1953011065E+01  0.1000000000E+01  0.4698893521E-01  0.1097805332E+02  0.1404420272E-15  0.1482322002E+01  0.6039277360E+15  0.1096234156E+02  0.1391720911E-15  0.1497940991E+01
  0.1857046303E+01  0.1000000000E+01  0.4698893521E-01  0.1174267728E+02  0.3014971658E-15 -0.1869740740E+01  0.6039277360E+15  0.1174004853E+02  0.3014463908E-15 -0.1864881747E+01
  0.1742953697E+01  0.1000000000E+01  0.4698893521E-01  0.5852067374E+01 -0.2776917000E-16 -0.6711331989E+00  0.6039277360E+15  0.5852435108E+01 -0.2741919844E-16 -0.6675490913E+00
  0.1646988935E+01  0.1000000000E+01  0.4698893521E-01  0.4440155674E+01 -0.1200507864E-15 -0.6630930083E+00  0.6039277360E+15  0.4434910183E+01 -0.1199749533E-15 -0.6547552899E+00
  0.1600000000E+01  0.1000000000E+01  0.4698893521E-01  0.2778584242E+01 -0.8690785504E-16  0.1819538241E+00  0.6039277360E+15  0.2781710265E+01 -0.8657789093E-16  0.1843754618E+00
  0.2000000000E+01  0.1000000000E+01  0.1429536967E+00 -0.2812633148E+00  0.2687857243E-17  0.5050315515E+02  0.6039277360E+15 -0.2566491559E+00  0.2721302482E-17  0.5043877417E+02
  0.1953011065E+01  0.1000000000E+01  0.1429536967E+00  0.2815976379E+01 -0.5130688571E-15  0.1649618606E+02  0.6039277360E+15  0.2793789379E+01 -0.5137604242E-15  0.1653153003E+02
  0.1857046303E+01  0.1000000000E+01  0.1429536967E+00  0.1279314705E+02 -0.2493969418E-15 -0.3556148450E+01  0.6039277360E+15  0.1278234678E+02 -0.2490092529E-15 -0.3545909946E+01
  0.1742953697E+01  0.1000000000E+01  0.1429536967E+00  0.9916829258E+01  0.6626562148E-17 -0.4254851225E+01  0.6039277360E+15  0.9914753892E+01  0.5825910038E-17 -0.4250470522E+01
  0.1646988935E+01  0.1000000000E+01  0.1429536967E+00  0.9025663784E+01 -0.1546335561E-15 -0.2280342723E+01  0.6039277360E+15  0.9019134027E+01 -0.1544392254E-15 -0.2271920825E+01
  0.1600000000E+01  0.1000000000E+01  0.1429536967E+00  0.5557417224E+01 -0.2844542269E-15 -0.2002590124E+01  0.6039277360E+15  0.5574860329E+01 -0.2851964797E-15 -0.1998893460E+01
  0.2000000000E+01  0.1000000000E+01  0.2570463033E+00  0.1901710136E-01  0.1081756931E-17  0.4987284560E+02  0.6039277360E+15  0.1818217023E-01  0.1028244262E-17  0.4987673259E+02