TITLE = "Generated from ../MESH/Convergence_0000000000.hmesh and Convergence_0000009000.hsol"
VARIABLES = "x","y","z","veloT_x","veloT_y","veloT_z","slr_4","velo_x","velo_y","velo_z"
ZONE I=6, J=6, K=1, F=POINT
  0.4000000000E+00  0.1000000000E+01  0.0000000000E+00  0.1062568227E+00  0.5503706255E-19  0.6791149152E-02  0.6575201016E+13  0.9404908484E-01  0.9022561872E-19  0.6639873912E-02
  0.3530110648E+00  0.1000000000E+01  0.0000000000E+00  0.1231212921E+00 -0.2827540414E-19 -0.1210166662E-02  0.6575201015E+13  0.1036845648E+00  0.7946367595E-20 -0.1822787636E-02
  0.2570463033E+00  0.1000000000E+01  0.0000000000E+00  0.9961917688E-01 -0.1603146705E-19  0.1110046244E-03  0.6575201014E+13  0.8008130685E-01  0.4874479369E-21 -0.3400871805E-03
  0.1429536967E+00  0.1000000000E+01  0.0000000000E+00  0.8957820739E-01 -0.5533436407E-20 -0.1397495513E-02  0.6575201012E+13  0.7299920841E-01 -0.2777497866E-20  0.1229261844E-03
  0.4698893521E-01  0.1000000000E+01  0.0000000000E+00  0.6954427426E-01 -0.1674293309E-20 -0.4838759326E-02  0.6575201011E+13  0.6131399043E-01  0.7130074375E-20 -0.7754940466E-02
  0.0000000000E+00  0.1000000000E+01  0.0000000000E+00 -0.1459249382E-02 -0.3446640320E-22 -0.4796180965E-02  0.6575201011E+13  0.6207839341E-03 -0.1175039447E-21 -0.6232831941E-02
  0.4000000000E+00  0.1000000000E+01  0.4698893521E-01  0.4849026300E+00  0.2296699650E-17  0.4826719661E+00  0.6575201017E+13  0.6823260086E+00  0.1181656133E-17  0.3427371557E-01
  0.3530110648E+00  0.1000000000E+01  0.4698893521E-01  0.3445615058E+00  0.3909946693E-18  0.4380533867E+00  0.6575201016E+13  0.5074545230E+00 -0.7940735953E-18  0.4237157313E-02
  0.2570463033E+00  0.1000000000E+01  0.4698893521E-01  0.2750729562E+00  0.1614406723E-17  0.2870394332E+00  0.6575201015E+13  0.3837334681E+00  0.9482557096E-18 -0.6798469362E-01
  0.1429536967E+00  0.1000000000E+01  0.4698893521E-01  0.1701107379E+00  0.9867618598E-18  0.1134042546E+00  0.6575201013E+13  0.2677038546E+00  0.1082066521E-17 -0.1561067029E+00
  0.4698893521E-01  0.1000000000E+01  0.4698893521E-01  0.1142531739E+00  0.2109165134E-18 -0.4830341146E-01  0.6575201011E+13  0.1898864036E+00  0.3836809939E-18 -0.1981005876E+00
  0.0000000000E+00  0.1000000000E+01  0.4698893521E-01 -0.1193697082E-01 -0.1285009281E-20 -0.6244232436E-01  0.6575201011E+13 -0.9099947115E-02 -0.2527998426E-20 -0.5668017485E-01
  0.4000000000E+00  0.1000000000E+01  0.1429536967E+00  0.1020163779E+01  0.1571776427E-16  0.5704158644E+00  0.6575201024E+13  0.1207036784E+01  0.1804997527E-16  0.2462009292E-01
  0.3530110648E+00  0.1000000000E+01  0.1429536967E+00  0.7741164199E+00  0.2276541869E-17  0.4696848417E+00  0.6575201022E+13  0.8374163513E+00  0.5656714016E-17 -0.4105915702E-01
  0.2570463033E+00  0.1000000000E+01  0.1429536967E+00  0.6112786506E+00  0.3619343984E-17  0.3535546276E+00  0.6575201019E+13  0.6460631960E+00  0.3357393943E-17 -0.7097988953E-01
  0.1429536967E+00  0.1000000000E+01  0.1429536967E+00  0.4402914921E+00  0.1470834250E-17  0.9169398955E-01  0.6575201014E+13  0.4168340537E+00  0.1279850285E-17 -0.2348762134E+00
  0.4698893521E-01  0.1000000000E+01  0.1429536967E+00  0.2885822549E+00  0.5446238756E-18 -0.5474515240E-01  0.6575201011E+13  0.1983838993E+00  0.1300990954E-17 -0.2085839442E+00
  0.0000000000E+00  0.1000000000E+01  0.1429536967E+00 -0.2336599497E-01 -0.1057252587E-19 -0.7842913692E-01  0.6575201010E+13 -0.2558415649E-01 -0.1625714073E-19 -0.6298917269E-01
  0.4000000000E+00  0.1000000000E+01  0.2570463033E+00  0.1321848422E+01  0.5589117296E-17  0.7256077370E-01  0.6575201032E+13  0.1606681040E+01  0.5801400564E-17 -0.2903123156E+00
  0.3530110648E+00  0.1000000000E+01  0.2570463033E+00  0.1190735140E+01  0.1171363067E-16 -0.1597765503E-02  0.6575201029E+13  0.1225968271E+01  0.5568033556E-17 -0.4302576520E+00
  0.2570463033E+00  0.1000000000E+01  0.2570463033E+00  0.9498663077E+00  0.2855263769E-17  0.4498018422E-01  0.6575201024E+13  0.9102823898E+00  0.2969491338E-17 -0.3591299589E+00
  0.1429536967E+00  0.1000000000E+01  0.2570463033E+00  0.8112822862E+00  0.1930681905E-17 -0.1372551529E+00  0.6575201017E+13  0.6176657999E+00  0.2016786213E-17 -0.3925087117E+00
  0.4698893521E-01  0.1000000000E+01  0.2570463033E+00  0.5308254979E+00  0.3199461924E-18 -0.1204749216E+00  0.6575201010E+13  0.2578495301E+00 -0.6445710526E-18 -0.1962184381E+00
  0.0000000000E+00  0.1000000000E+01  0.2570463033E+00 -0.1508071165E-01  0.1323536094E-19 -0.6320743677E-01  0.6575201009E+13 -0.1646050298E-01  0.1469326446E-19 -0.3462182009E-01
  0.4000000000E+00  0.1000000000E+01  0.3530110648E+00  0.1686009386E+01  0.3622440423E-17 -0.1588150905E+00  0.6575201038E+13  0.2210134702E+01  0.3386745723E-17 -0.8497605615E+00
  0.3530110648E+00  0.1000000000E+01  0.3530110648E+00  0.1417187875E+01  0.4063566425E-17 -0.2588639048E+00  0.6575201034E+13  0.1492694119E+01  0.3767656909E-17 -0.9462288664E+00
  0.2570463033E+00  0.1000000000E+01  0.3530110648E+00  0.1160791099E+01 -0.4184933277E-17 -0.2071476630E+00  0.6575201028E+13  0.9952972810E+00  0.3715551225E-17 -0.7558998577E+00
  0.1429536967E+00  0.1000000000E+01  0.3530110648E+00  0.1094244267E+01  0.9357759082E-18 -0.3384508411E+00  0.6575201018E+13  0.6875264352E+00  0.3374474857E-17 -0.6254605695E+00
  0.4698893521E-01  0.1000000000E+01  0.3530110648E+00  0.6948320863E+00  0.1546827537E-17 -0.2284512950E+00  0.6575201009E+13  0.2526328068E+00  0.1883690242E-17 -0.2685170524E+00
  0.0000000000E+00  0.1000000000E+01  0.3530110648E+00 -0.1655303713E-01  0.1781391271E-19 -0.6240145938E-01  0.6575201007E+13 -0.1897783512E-01  0.4209570204E-20 -0.1660651128E-01
  0.4000000000E+00  0.1000000000E+01  0.4000000000E+00  0.1926923777E+01  0.4881491159E-17 -0.2289669930E+00  0.6575201041E+13  0.2338832855E+01  0.5304268143E-17 -0.1339643203E+01
  0.3530110648E+00  0.1000000000E+01  0.4000000000E+00  0.1613300230E+01  0.2699848779E-17 -0.2883173982E+00  0.6575201037E+13  0.1574276122E+01  0.4331634543E-17 -0.1133676830E+01
  0.2570463033E+00  0.1000000000E+01  0.4000000000E+00  0.1296371856E+01  0.4195167075E-17 -0.3006509027E+00  0.6575201030E+13  0.1027393042E+01  0.1869970129E-17 -0.8286645187E+00
  0.1429536967E+00  0.1000000000E+01  0.4000000000E+00  0.1252632060E+01  0.2896531524E-17 -0.4070207597E+00  0.6575201019E+13  0.7170480632E+00  0.5668812384E-18 -0.6506699905E+00
  0.4698893521E-01  0.1000000000E+01  0.4000000000E+00  0.7722403410E+00  0.8275494255E-18 -0.2547447067E+00  0.6575201009E+13  0.2319470434E+00  0.6967502779E-18 -0.2425910222E+00
  0.0000000000E+00  0.1000000000E+01  0.4000000000E+00 -0.8189601748E-02 -0.2906956964E-20 -0.4748063895E-01  0.6575201007E+13 -0.1158726073E-01 -0.2267591877E-20  0.4931735947E-02
ZONE I=6, J=6, K=1, F=POINT
  0.8000000000E+00  0.1000000000E+01  0.0000000000E+00  0.2330777847E+00 -0.8920584821E-19 -0.1136031299E-01  0.6575201023E+13  0.2436540290E+00  0.4103320907E-19 -0.1402693375E-01
  0.7530110648E+00  0.1000000000E+01  0.0000000000E+00  0.2121957545E+00  0.4716755564E-17  0.5242181929E-02  0.6575201022E+13  0.2141799155E+00  0.5042523454E-17  0.3176863196E-02
  0.6570463033E+00  0.1000000000E+01  0.0000000000E+00  0.1913913146E+00  0.2549798973E-17 -0.2723667317E-02  0.6575201020E+13  0.1824500278E+00  0.2367207966E-17 -0.4586526696E-02
  0.5429536967E+00  0.1000000000E+01  0.0000000000E+00  0.1590009512E+00  0.4163223629E-17  0.2703564261E-02  0.6575201018E+13  0.1497124028E+00  0.3882043762E-17  0.1042890159E-02
  0.4469889352E+00  0.1000000000E+01  0.0000000000E+00  0.1273092440E+00  0.3916906210E-17 -0.1861597528E-02  0.6575201017E+13  0.1197812391E+00  0.3700236835E-17 -0.3134116562E-02
  0.4000000000E+00  0.1000000000E+01  0.0000000000E+00  0.1341860300E+00  0.5618659041E-19  0.6433280486E-02  0.6575201016E+13  0.1227553915E+00  0.9179862997E-19  0.6299326586E-02
  0.8000000000E+00  0.1000000000E+01  0.4698893521E-01  0.6655875964E+00 -0.2472554921E-16  0.7313273182E+00  0.6575201025E+13  0.1119185228E+01 -0.3028272346E-16  0.3324044155E+00
  0.7530110648E+00  0.1000000000E+01  0.4698893521E-01  0.8582462732E+00 -0.3482907351E-16  0.6848041940E+00  0.6575201024E+13  0.1256924107E+01 -0.5683865353E-16  0.2698138517E+00
  0.6570463033E+00  0.1000000000E+01  0.4698893521E-01  0.6056369292E+00  0.1335339576E-18  0.7299541166E+00  0.6575201022E+13  0.9270706516E+00  0.3355726215E-17  0.3394280120E+00
  0.5429536967E+00  0.1000000000E+01  0.4698893521E-01  0.5855906438E+00  0.8755994593E-17  0.7172382069E+00  0.6575201020E+13  0.8640911965E+00  0.1325608601E-16  0.3345758214E+00
  0.4469889352E+00  0.1000000000E+01  0.4698893521E-01  0.4297640212E+00  0.2738067245E-17  0.6118815080E+00  0.6575201018E+13  0.6694178240E+00  0.1656692734E-17  0.1822680920E+00
  0.4000000000E+00  0.1000000000E+01  0.4698893521E-01  0.5277129969E+00  0.2044504564E-17  0.4819769687E+00  0.6575201017E+13  0.7257099579E+00  0.8923947093E-18  0.3350897567E-01
  0.8000000000E+00  0.1000000000E+01  0.1429536967E+00  0.1631466783E+01 -0.4701491152E-16  0.4594655620E+00  0.6575201034E+13  0.2187319085E+01 -0.3209573374E-16  0.1384503495E+00
  0.7530110648E+00  0.1000000000E+01  0.1429536967E+00  0.1934309576E+01 -0.3876380989E-16  0.6235853055E+00  0.6575201033E+13  0.2390569962E+01 -0.3945744512E-16  0.2526269526E+00
  0.6570463033E+00  0.1000000000E+01  0.1429536967E+00  0.1434521357E+01 -0.1036508756E-16  0.5972665466E+00  0.6575201031E+13  0.1783974508E+01 -0.2473828367E-16  0.1459394988E+00
  0.5429536967E+00  0.1000000000E+01  0.1429536967E+00  0.1284291031E+01  0.1906808591E-16  0.6679497554E+00  0.6575201028E+13  0.1601909278E+01  0.2780682480E-16  0.1534032287E+00
  0.4469889352E+00  0.1000000000E+01  0.1429536967E+00  0.9525950652E+00  0.4767742877E-17  0.5703380760E+00  0.6575201026E+13  0.1215860458E+01  0.5656556764E-17  0.2339694994E-01
  0.4000000000E+00  0.1000000000E+01  0.1429536967E+00  0.1071323509E+01  0.1643309517E-16  0.5711196529E+00  0.6575201024E+13  0.1257765740E+01  0.1888457581E-16  0.2521536040E-01
  0.8000000000E+00  0.1000000000E+01  0.2570463033E+00  0.2934239878E+01 -0.1093873810E-16 -0.2848867833E+00  0.6575201043E+13  0.3590839721E+01 -0.9198798311E-17 -0.5612550454E+00
  0.7530110648E+00  0.1000000000E+01  0.2570463033E+00  0.2829696395E+01  0.4266854588E-17 -0.4436528634E-01  0.6575201043E+13  0.3353840428E+01 -0.2514041895E-17 -0.3357327586E+00
  0.6570463033E+00  0.1000000000E+01  0.2570463033E+00  0.2313436369E+01 -0.1046844560E-16  0.3032125620E-02  0.6575201040E+13  0.2626451570E+01 -0.1899914468E-16 -0.1681348864E+00
  0.5429536967E+00  0.1000000000E+01  0.2570463033E+00  0.1782153959E+01  0.1025263161E-16  0.2536581920E+00  0.6575201037E+13  0.2147223920E+01  0.1628229691E-16  0.2248887097E+00
  0.4469889352E+00  0.1000000000E+01  0.2570463033E+00  0.1353548467E+01  0.1354561360E-16  0.7474827290E-01  0.6575201033E+13  0.1785034259E+01  0.1027025995E-16 -0.1455805275E+00
  0.4000000000E+00  0.1000000000E+01  0.2570463033E+00  0.1355652351E+01  0.5658803071E-17  0.7336904814E-01  0.6575201032E+13  0.1639019951E+01  0.5928849464E-17 -0.2895103695E+00
  0.8000000000E+00  0.1000000000E+01  0.3530110648E+00  0.3378013027E+01 -0.8832940059E-18 -0.6128890098E+00  0.6575201053E+13  0.4136330266E+01 -0.1249561067E-17 -0.1408563998E+01
  0.7530110648E+00  0.1000000000E+01  0.3530110648E+00  0.3336774214E+01  0.1811732672E-16 -0.3807037974E+00  0.6575201053E+13  0.3831168832E+01  0.4504455167E-16 -0.1237345364E+01
  0.6570463033E+00  0.1000000000E+01  0.3530110648E+00  0.2545984191E+01 -0.2780491497E-16  0.3170905196E-01  0.6575201051E+13  0.2613265903E+01 -0.1850212990E-16 -0.7653532424E+00
  0.5429536967E+00  0.1000000000E+01  0.3530110648E+00  0.2170512161E+01 -0.4223792091E-16  0.6474307591E+00  0.6575201048E+13  0.2524271107E+01 -0.5808715376E-16  0.1367613255E-01
  0.4469889352E+00  0.1000000000E+01  0.3530110648E+00  0.1965858133E+01 -0.3485423881E-17  0.9419227452E-01  0.6575201041E+13  0.2704336740E+01  0.4286915469E-17 -0.5552124674E+00
  0.4000000000E+00  0.1000000000E+01  0.3530110648E+00  0.1717433526E+01  0.3643943261E-17 -0.1580221595E+00  0.6575201038E+13  0.2238712383E+01  0.3239241821E-17 -0.8487922050E+00
  0.8000000000E+00  0.1000000000E+01  0.4000000000E+00  0.3467975941E+01 -0.1034416491E-16 -0.9652507111E+00  0.6575201059E+13  0.4368804144E+01 -0.1046225586E-16 -0.2046594042E+01
  0.7530110648E+00  0.1000000000E+01  0.4000000000E+00  0.3356179732E+01 -0.9953169183E-17 -0.6265770953E+00  0.6575201059E+13  0.3961553950E+01 -0.1928383900E-17 -0.1916285916E+01
  0.6570463033E+00  0.1000000000E+01  0.4000000000E+00  0.2369706658E+01  0.6977836557E-17  0.3157477407E-01  0.6575201058E+13  0.2494730539E+01  0.5558948902E-18 -0.1764490731E+01
  0.5429536967E+00  0.1000000000E+01  0.4000000000E+00  0.2311817561E+01  0.4116801480E-16  0.9407858576E+00  0.6575201057E+13  0.2602151023E+01  0.2780157754E-16 -0.1083758675E+01
  0.4469889352E+00  0.1000000000E+01  0.4000000000E+00  0.2607095475E+01  0.2814004726E-16  0.1148766187E+00  0.6575201047E+13  0.3201224131E+01  0.4973036138E-16 -0.1368432092E+01
  0.4000000000E+00  0.1000000000E+01  0.4000000000E+00  0.1936539668E+01  0.4900793447E-17 -0.2266663832E+00  0.6575201041E+13  0.2344145481E+01  0.5167427386E-17 -0.1336880863E+01
ZONE I=6, J=6, K=1, F=POINT
  0.1200000000E+01  0.1000000000E+01  0.0000000000E+00  0.1835842872E+00  0.5635743914E-19  0.4171925714E-01  0.6575201029E+13  0.2739807020E+00  0.1775562250E-18  0.3767948021E-01
  0.1153011065E+01  0.1000000000E+01  0.0000000000E+00  0.2160101068E+00  0.9446630578E-17 -0.7811065683E-02  0.6575201028E+13  0.2970009347E+00  0.1391852041E-16 -0.1051294141E-01
  0.1057046303E+01  0.1000000000E+01  0.0000000000E+00  0.2279300822E+00  0.5872468882E-17  0.6605048144E-02  0.6575201027E+13  0.2894752266E+00  0.7433528859E-17  0.3955444620E-02
  0.9429536967E+00  0.1000000000E+01  0.0000000000E+00  0.2225299885E+00 -0.2284171819E-19 -0.8577651350E-02  0.6575201026E+13  0.2610012491E+00  0.2167596113E-18 -0.1085304330E-01
  0.8469889352E+00  0.1000000000E+01  0.0000000000E+00  0.2228656589E+00 -0.6346459997E-19  0.4857953768E-02  0.6575201024E+13  0.2425872875E+00 -0.1102374839E-19  0.2573910520E-02
  0.8000000000E+00  0.1000000000E+01  0.0000000000E+00  0.1875306286E+00 -0.9007982880E-19 -0.1096115191E-01  0.6575201023E+13  0.1981311040E+00  0.5117278409E-19 -0.1354858359E-01
  0.1200000000E+01  0.1000000000E+01  0.4698893521E-01  0.2476746062E+01 -0.4590230267E-16  0.6166544496E-01  0.6575201029E+13  0.3177913063E+01 -0.7679537047E-16  0.2966830988E+00
  0.1153011065E+01  0.1000000000E+01  0.4698893521E-01  0.1779738385E+01 -0.2859483161E-16  0.2623335127E+00  0.6575201029E+13  0.2481770633E+01 -0.5061795455E-16  0.4203805429E+00
  0.1057046303E+01  0.1000000000E+01  0.4698893521E-01  0.1673264540E+01 -0.1010487333E-16  0.3684583282E+00  0.6575201029E+13  0.2322279649E+01 -0.2416377558E-17  0.3474820608E+00
  0.9429536967E+00  0.1000000000E+01  0.4698893521E-01  0.1081718414E+01 -0.1750975585E-16  0.5061735064E+00  0.6575201027E+13  0.1656943358E+01 -0.3339270454E-16  0.3090191023E+00
  0.8469889352E+00  0.1000000000E+01  0.4698893521E-01  0.9789794787E+00 -0.3457340496E-16  0.6104922432E+00  0.6575201026E+13  0.1487728275E+01 -0.5680954675E-16  0.2658964081E+00
  0.8000000000E+00  0.1000000000E+01  0.4698893521E-01  0.6033567156E+00 -0.2400639296E-16  0.7331653602E+00  0.6575201025E+13  0.1058048544E+01 -0.2974393450E-16  0.3342873021E+00
  0.1200000000E+01  0.1000000000E+01  0.1429536967E+00  0.5717566023E+01 -0.6159107547E-16 -0.2901786195E+00  0.6575201033E+13  0.6576925874E+01 -0.8391922376E-16  0.1427316506E+00
  0.1153011065E+01  0.1000000000E+01  0.1429536967E+00  0.4199609575E+01 -0.7909655387E-16 -0.4450480009E+00  0.6575201033E+13  0.5118346057E+01 -0.3016643003E-16 -0.1020177606E+00
  0.1057046303E+01  0.1000000000E+01  0.1429536967E+00  0.3810030997E+01 -0.3761664875E-16 -0.9221742357E-01  0.6575201034E+13  0.4661724244E+01 -0.3941428872E-16  0.3711943133E-01
  0.9429536967E+00  0.1000000000E+01  0.1429536967E+00  0.2550458917E+01 -0.3209307388E-16 -0.3134404710E-01  0.6575201035E+13  0.3304423621E+01 -0.3261706535E-16 -0.1248949053E+00
  0.8469889352E+00  0.1000000000E+01  0.1429536967E+00  0.2247245221E+01 -0.5377253921E-16  0.4119727235E+00  0.6575201034E+13  0.2922690400E+01 -0.6772165356E-16  0.1553505153E+00
  0.8000000000E+00  0.1000000000E+01  0.1429536967E+00  0.1548683971E+01 -0.4927833667E-16  0.4573842791E+00  0.6575201034E+13  0.2106537416E+01 -0.3400855203E-16  0.1367400650E+00
  0.1200000000E+01  0.1000000000E+01  0.2570463033E+00  0.6333594111E+01 -0.2094049056E-16 -0.1387736927E+01  0.6575201037E+13  0.7349440027E+01 -0.2099261880E-16 -0.1014798516E+01
  0.1153011065E+01  0.1000000000E+01  0.2570463033E+00  0.5729671142E+01 -0.1326234699E-16 -0.1616320515E+01  0.6575201038E+13  0.6862787697E+01 -0.1291142155E-15 -0.1319595721E+01
  0.1057046303E+01  0.1000000000E+01  0.2570463033E+00  0.4830814851E+01 -0.3580498329E-16 -0.1166633654E+01  0.6575201041E+13  0.5934801354E+01 -0.3410291355E-16 -0.1085445971E+01
  0.9429536967E+00  0.1000000000E+01  0.2570463033E+00  0.3839104801E+01 -0.2418229721E-16 -0.1103568305E+01  0.6575201043E+13  0.4772775526E+01 -0.7392078946E-16 -0.1273568864E+01
  0.8469889352E+00  0.1000000000E+01  0.2570463033E+00  0.3286305019E+01 -0.9538828235E-18 -0.3780805311E+00  0.6575201044E+13  0.4062388321E+01  0.2080325425E-16 -0.6344136570E+00
  0.8000000000E+00  0.1000000000E+01  0.2570463033E+00  0.2895956511E+01 -0.1075556881E-16 -0.2876927697E+00  0.6575201043E+13  0.3553210210E+01 -0.9618028675E-17 -0.5636587733E+00
  0.1200000000E+01  0.1000000000E+01  0.3530110648E+00  0.6897904047E+01  0.7102627305E-17 -0.2465011579E+01  0.6575201041E+13  0.8074134861E+01  0.6591555071E-17 -0.2178560258E+01
  0.1153011065E+01  0.1000000000E+01  0.3530110648E+00  0.6059954999E+01 -0.2464973749E-17 -0.2401755933E+01  0.6575201043E+13  0.7393455485E+01 -0.1989623428E-16 -0.2214059675E+01
  0.1057046303E+01  0.1000000000E+01  0.3530110648E+00  0.5252424248E+01 -0.3174788118E-16 -0.2002674962E+01  0.6575201047E+13  0.6639949862E+01 -0.3225877564E-16 -0.2085484688E+01
  0.9429536967E+00  0.1000000000E+01  0.3530110648E+00  0.4220772142E+01 -0.2088676228E-16 -0.1684632143E+01  0.6575201051E+13  0.5362275142E+01 -0.5478000136E-16 -0.2142013951E+01
  0.8469889352E+00  0.1000000000E+01  0.3530110648E+00  0.3715323244E+01 -0.1822286458E-16 -0.8825289630E+00  0.6575201053E+13  0.4575360764E+01  0.1228105810E-16 -0.1584649189E+01
  0.8000000000E+00  0.1000000000E+01  0.3530110648E+00  0.3329305167E+01 -0.4700611891E-18 -0.6132555829E+00  0.6575201053E+13  0.4087895887E+01 -0.1132613416E-17 -0.1408891733E+01
  0.1200000000E+01  0.1000000000E+01  0.4000000000E+00  0.6739324982E+01  0.5311169819E-17 -0.2870316247E+01  0.6575201043E+13  0.8010810706E+01  0.4633828751E-17 -0.2572562929E+01
  0.1153011065E+01  0.1000000000E+01  0.4000000000E+00  0.6236930817E+01 -0.1368650476E-16 -0.3038672762E+01  0.6575201045E+13  0.7674927651E+01  0.8942041591E-17 -0.2838660463E+01
  0.1057046303E+01  0.1000000000E+01  0.4000000000E+00  0.5264361308E+01 -0.2437194373E-16 -0.2583623482E+01  0.6575201050E+13  0.6795360886E+01 -0.1026565424E-16 -0.2598653162E+01
  0.9429536967E+00  0.1000000000E+01  0.4000000000E+00  0.4305131909E+01 -0.1646683004E-16 -0.2197335982E+01  0.6575201055E+13  0.5617315699E+01 -0.4552611132E-16 -0.2602148818E+01
  0.8469889352E+00  0.1000000000E+01  0.4000000000E+00  0.3648501704E+01 -0.2093513271E-16 -0.1286051031E+01  0.6575201058E+13  0.4666851134E+01 -0.1026454106E-16 -0.2146316026E+01
  0.8000000000E+00  0.1000000000E+01  0.4000000000E+00  0.3464391720E+01 -0.1018600762E-16 -0.9683158303E+00  0.6575201059E+13  0.4365070062E+01 -0.1048751003E-16 -0.2048716705E+01
ZONE I=6, J=6, K=1, F=POINT
  0.1600000000E+01  0.1000000000E+01  0.0000000000E+00  0.2915107353E+00 -0.1108933417E-17 -0.6966450691E-01  0.6575201025E+13  0.4825195065E+00 -0.8954798237E-18 -0.8335353126E-01
  0.1553011065E+01  0.1000000000E+01  0.0000000000E+00  0.1742141837E+00 -0.8921686874E-17  0.4590437114E-01  0.6575201027E+13  0.3566856839E+00 -0.1808686174E-16  0.4337554235E-01
  0.1457046303E+01  0.1000000000E+01  0.0000000000E+00  0.1707192547E+00 -0.4411610297E-17 -0.1426818613E-02  0.6575201028E+13  0.3258083644E+00 -0.7838365157E-17 -0.4674180861E-02
  0.1342953697E+01  0.1000000000E+01  0.0000000000E+00  0.2004146140E+00  0.1115974476E-16  0.3139699440E-01  0.6575201029E+13  0.3256979171E+00  0.1818508075E-16  0.2837430304E-01
  0.1246988935E+01  0.1000000000E+01  0.0000000000E+00  0.2005168857E+00  0.1484489256E-17 -0.5784709542E-02  0.6575201029E+13  0.3031571997E+00  0.1343750915E-17 -0.8822593758E-02
  0.1200000000E+01  0.1000000000E+01  0.0000000000E+00  0.2733499546E+00  0.8930468910E-19  0.4165217406E-01  0.6575201029E+13  0.3640765488E+00  0.2586911851E-18  0.3758724930E-01
  0.1600000000E+01  0.1000000000E+01  0.4698893521E-01  0.2812470664E+01 -0.8645742670E-16  0.8027400534E+00  0.6575201027E+13  0.3652065012E+01 -0.1055986924E-15  0.7774513081E+00
  0.1553011065E+01  0.1000000000E+01  0.4698893521E-01  0.3409654854E+01 -0.5045037840E-16  0.2469710133E+00  0.6575201028E+13  0.4161006923E+01 -0.2783588290E-16  0.2918164719E+00
  0.1457046303E+01  0.1000000000E+01  0.4698893521E-01  0.2569291372E+01 -0.4543009573E-17  0.2928003255E+00  0.6575201029E+13  0.3319821688E+01 -0.2682821438E-16  0.5450626790E+00
  0.1342953697E+01  0.1000000000E+01  0.4698893521E-01  0.2703843655E+01  0.2596635841E-16  0.2530529942E+00  0.6575201029E+13  0.3443262463E+01  0.3262725572E-16  0.5011098917E+00
  0.1246988935E+01  0.1000000000E+01  0.4698893521E-01  0.2201673446E+01 -0.7669418854E-17  0.2340624212E+00  0.6575201029E+13  0.2881058517E+01  0.2055429924E-16  0.4837937695E+00
  0.1200000000E+01  0.1000000000E+01  0.4698893521E-01  0.2573566608E+01 -0.4999122420E-16  0.5620203905E-01  0.6575201029E+13  0.3274029985E+01 -0.8117845662E-16  0.2913580907E+00
  0.1600000000E+01  0.1000000000E+01  0.1429536967E+00  0.6287990738E+01 -0.2893789529E-15 -0.1409205541E+01  0.6575201031E+13  0.7197781601E+01 -0.2388013796E-15 -0.7223006019E+00
  0.1553011065E+01  0.1000000000E+01  0.1429536967E+00  0.8249826130E+01 -0.1539391831E-15 -0.5281661548E+00  0.6575201032E+13  0.8877611796E+01 -0.1787650903E-15  0.1192085033E+00
  0.1457046303E+01  0.1000000000E+01  0.1429536967E+00  0.6421252615E+01  0.1839326407E-16 -0.5178811269E+00  0.6575201032E+13  0.7132614548E+01  0.6296235459E-16  0.7666879165E-01
  0.1342953697E+01  0.1000000000E+01  0.1429536967E+00  0.6549187373E+01  0.8994674097E-16  0.1226989101E+00  0.6575201033E+13  0.7338668010E+01  0.1190794472E-15  0.6544327288E+00
  0.1246988935E+01  0.1000000000E+01  0.1429536967E+00  0.5264520864E+01  0.1469825240E-16 -0.4520779973E+00  0.6575201032E+13  0.5961960522E+01 -0.3991727858E-16  0.3177375013E-01
  0.1200000000E+01  0.1000000000E+01  0.1429536967E+00  0.5887247007E+01 -0.6603983291E-16 -0.2842912215E+00  0.6575201033E+13  0.6735944603E+01 -0.8754677539E-16  0.1476691834E+00
  0.1600000000E+01  0.1000000000E+01  0.2570463033E+00  0.1137663488E+02  0.7984167169E-16 -0.3289549126E+01  0.6575201031E+13  0.1243433591E+02  0.8293970732E-16 -0.2366487636E+01
  0.1553011065E+01  0.1000000000E+01  0.2570463033E+00  0.1058525244E+02  0.1021824014E-15 -0.2106181558E+01  0.6575201033E+13  0.1146057617E+02  0.1157722899E-15 -0.1269854112E+01
  0.1457046303E+01  0.1000000000E+01  0.2570463033E+00  0.9586595686E+01  0.1530097563E-15 -0.1888129462E+01  0.6575201034E+13  0.1044484400E+02  0.2018641898E-15 -0.1258246276E+01
  0.1342953697E+01  0.1000000000E+01  0.2570463033E+00  0.8173415348E+01  0.1060744412E-15 -0.8600136443E+00  0.6575201035E+13  0.9016538992E+01  0.1537250175E-15 -0.3122723111E+00
  0.1246988935E+01  0.1000000000E+01  0.2570463033E+00  0.6917695589E+01  0.2262053356E-16 -0.1642146269E+01  0.6575201036E+13  0.7757194293E+01  0.7016564872E-16 -0.1194821619E+01
  0.1200000000E+01  0.1000000000E+01  0.2570463033E+00  0.6373396278E+01 -0.2075250134E-16 -0.1377785921E+01  0.6575201037E+13  0.7389237363E+01 -0.2189695351E-16 -0.1007791570E+01
  0.1600000000E+01  0.1000000000E+01  0.3530110648E+00  0.1003251189E+02  0.1781630153E-15 -0.3234445468E+01  0.6575201032E+13  0.1119489601E+02  0.1748261545E-15 -0.2553775871E+01
  0.1553011065E+01  0.1000000000E+01  0.3530110648E+00  0.1050012786E+02  0.1736214430E-15 -0.3122941436E+01  0.6575201034E+13  0.1150958331E+02  0.1806188296E-15 -0.2483021671E+01
  0.1457046303E+01  0.1000000000E+01  0.3530110648E+00  0.9728751952E+01  0.1435021542E-15 -0.2779209553E+01  0.6575201036E+13  0.1066445659E+02  0.1913793326E-15 -0.2157376189E+01
  0.1342953697E+01  0.1000000000E+01  0.3530110648E+00  0.8679168428E+01  0.1042453411E-15 -0.2179824584E+01  0.6575201038E+13  0.9605160774E+01  0.1284107841E-15 -0.1644985543E+01
  0.1246988935E+01  0.1000000000E+01  0.3530110648E+00  0.7209340356E+01  0.3619077200E-16 -0.2491850834E+01  0.6575201039E+13  0.8212306927E+01  0.2201836420E-17 -0.2113005574E+01
  0.1200000000E+01  0.1000000000E+01  0.3530110648E+00  0.6977503957E+01  0.7200115659E-17 -0.2465102030E+01  0.6575201041E+13  0.8149722524E+01  0.6707049297E-17 -0.2178573458E+01
  0.1600000000E+01  0.1000000000E+01  0.4000000000E+00  0.1027965234E+02  0.1748564047E-15 -0.3917911164E+01  0.6575201032E+13  0.1152993193E+02  0.1740645971E-15 -0.2974899628E+01
  0.1553011065E+01  0.1000000000E+01  0.4000000000E+00  0.9940558133E+01  0.1931169320E-15 -0.3129903574E+01  0.6575201034E+13  0.1098183494E+02  0.1713058993E-15 -0.2266138557E+01
  0.1457046303E+01  0.1000000000E+01  0.4000000000E+00  0.9758216628E+01  0.1482917456E-15 -0.3348688320E+01  0.6575201037E+13  0.1071221864E+02  0.1456657976E-15 -0.2573191434E+01
  0.1342953697E+01  0.1000000000E+01  0.4000000000E+00  0.8542739427E+01  0.1047098664E-15 -0.2650983356E+01  0.6575201039E+13  0.9543748478E+01  0.1644874712E-15 -0.2018951608E+01
  0.1246988935E+01  0.1000000000E+01  0.4000000000E+00  0.7437472696E+01  0.2116098995E-16 -0.3131387670E+01  0.6575201041E+13  0.8541625947E+01  0.8268535021E-17 -0.2720979878E+01
  0.1200000000E+01  0.1000000000E+01  0.4000000000E+00  0.6713495817E+01  0.5455379680E-17 -0.2857772536E+01  0.6575201043E+13  0.7987733998E+01  0.5094657554E-17 -0.2563027310E+01
ZONE I=6, J=6, K=1, F=POINT
  0.2000000000E+01  0.1000000000E+01  0.0000000000E+00  0.2400568573E+01  0.1041029573E-18  0.2122989055E+02  0.6575200983E+13  0.2466020342E+01  0.1861294230E-18  0.2219050950E+02
  0.1953011065E+01  0.1000000000E+01  0.0000000000E+00  0.1375339135E+01 -0.3994061609E-16 -0.1484414680E+00  0.6575201010E+13  0.1645592721E+01 -0.4399605753E-16 -0.1150136068E+00
  0.1857046303E+01  0.1000000000E+01  0.0000000000E+00 -0.1811884507E+00 -0.1133323348E-16  0.1601595398E+00  0.6575201018E+13  0.1153404567E+00  0.4598270575E-17  0.1439187954E+00
  0.1742953697E+01  0.1000000000E+01  0.0000000000E+00  0.2777988502E+00  0.5080253291E-18 -0.3467487616E-01  0.6575201021E+13  0.5163157139E+00  0.1277932590E-17 -0.3257139533E-01
  0.1646988935E+01  0.1000000000E+01  0.0000000000E+00  0.5013054418E-01 -0.4353275150E-18  0.6207861149E-01  0.6575201025E+13  0.2917924317E+00 -0.9067507720E-18  0.5501026103E-01
  0.1600000000E+01  0.1000000000E+01  0.0000000000E+00  0.2486100430E+00 -0.1190048365E-17 -0.8182813757E-01  0.6575201025E+13  0.4312696669E+00 -0.1027525731E-17 -0.9419999158E-01
  0.2000000000E+01  0.1000000000E+01  0.4698893521E-01 -0.2633445899E-01  0.6548113292E-18  0.4856956666E+02  0.6575201009E+13 -0.1973236716E-01  0.7705743538E-18  0.4901585988E+02
  0.1953011065E+01  0.1000000000E+01  0.4698893521E-01  0.1046939224E+02  0.1291501580E-15  0.1033715890E+01  0.6575201011E+13  0.1144417136E+02  0.1371113277E-15  0.2006960370E+01
  0.1857046303E+01  0.1000000000E+01  0.4698893521E-01  0.1104289650E+02  0.2460519313E-15 -0.2143095565E+01  0.6575201017E+13  0.1219228759E+02  0.3276688244E-15 -0.1323009966E+01
  0.1742953697E+01  0.1000000000E+01  0.4698893521E-01  0.5243518981E+01 -0.4765885059E-16 -0.4846020243E+00  0.6575201022E+13  0.6302053986E+01 -0.5096569459E-16  0.6100906133E-01
  0.1646988935E+01  0.1000000000E+01  0.4698893521E-01  0.4053386584E+01 -0.1069908523E-15 -0.1214615076E+00  0.6575201026E+13  0.5225700562E+01 -0.1689700078E-15 -0.9256169449E-02
  0.1600000000E+01  0.1000000000E+01  0.4698893521E-01  0.2651353372E+01 -0.8375718666E-16  0.7870880283E+00  0.6575201027E+13  0.3493761439E+01 -0.1022781768E-15  0.7575054262E+00
  0.2000000000E+01  0.1000000000E+01  0.1429536967E+00 -0.2723544589E+00  0.3637480188E-17  0.5064426586E+02  0.6575201007E+13 -0.2632763945E+00  0.2495395592E-17  0.5088666510E+02
  0.1953011065E+01  0.1000000000E+01  0.1429536967E+00  0.2271149396E+01 -0.5577178129E-15  0.1587406393E+02  0.6575201007E+13  0.3287418384E+01 -0.4644743414E-15  0.1706288122E+02
  0.1857046303E+01  0.1000000000E+01  0.1429536967E+00  0.1180163569E+02 -0.2236931644E-15 -0.4087315526E+01  0.6575201014E+13  0.1309173779E+02 -0.3009885346E-15 -0.2993598845E+01
  0.1742953697E+01  0.1000000000E+01  0.1429536967E+00  0.9105874252E+01 -0.1278544539E-15 -0.4059357247E+01  0.6575201023E+13  0.1047334842E+02  0.5656849656E-17 -0.3143951720E+01
  0.1646988935E+01  0.1000000000E+01  0.1429536967E+00  0.8818585764E+01 -0.1801814133E-15 -0.1746122758E+01  0.6575201030E+13  0.1033318534E+02 -0.1753255316E-15 -0.9936392669E+00
  0.1600000000E+01  0.1000000000E+01  0.1429536967E+00  0.5922770618E+01 -0.3071846403E-15 -0.1410499626E+01  0.6575201031E+13  0.6867128280E+01 -0.2559439399E-15 -0.7269994966E+00
  0.2000000000E+01  0.1000000000E+01  0.2570463033E+00  0.2378795848E-01  0.1104370738E-17  0.5005033455E+02  0.6575201002E+13  0.2400807535E-01  0.1301035832E-17  0.5029752683E+02