TITLE = "Generated from ../MESH/Convergence_0000000000.hmesh and Convergence_0000002400.hsol"
VARIABLES = "x","y","z","veloT_x","veloT_y","veloT_z","slr_4","velo_x","velo_y","velo_z"
ZONE I=6, J=6, K=1, F=POINT
  0.4000000000E+00  0.1000000000E+01  0.0000000000E+00 -0.1080444625E-01  0.2876810795E-19  0.6440394251E-02  0.6183121447E+15 -0.1108882392E-01  0.2919692167E-19  0.6921276807E-02
  0.3530110648E+00  0.1000000000E+01  0.0000000000E+00 -0.6330386806E-03  0.9814897221E-20 -0.5922046096E-03  0.6183121447E+15 -0.6186352041E-03  0.8028726693E-20 -0.5585111782E-03
  0.2570463033E+00  0.1000000000E+01  0.0000000000E+00  0.4539907590E-03  0.1578960120E-20  0.2310237077E-02  0.6183121447E+15  0.5375566190E-03  0.1076944219E-20  0.2303468508E-02
  0.1429536967E+00  0.1000000000E+01  0.0000000000E+00 -0.4375347121E-03  0.3438728519E-21 -0.1036277245E-02  0.6183121447E+15 -0.4167733349E-03  0.2242957668E-21 -0.1070855562E-02
  0.4698893521E-01  0.1000000000E+01  0.0000000000E+00  0.2075779674E-02 -0.2067299651E-20  0.1964079814E-02  0.6183121447E+15  0.2155522529E-02 -0.2092930956E-20  0.1876776853E-02
  0.0000000000E+00  0.1000000000E+01  0.0000000000E+00 -0.7460614673E-02  0.1302123328E-22  0.2055642199E-02  0.6183121447E+15 -0.7438400314E-02  0.9727853823E-23  0.2024813010E-02
  0.4000000000E+00  0.1000000000E+01  0.4698893521E-01  0.2647682119E+00  0.2691824482E-17 -0.3746945391E-01  0.6183121447E+15  0.2659468615E+00  0.2685296343E-17 -0.3244400166E-01
  0.3530110648E+00  0.1000000000E+01  0.4698893521E-01  0.1266974189E+00  0.2371744960E-17 -0.9986473285E-03  0.6183121447E+15  0.1276226080E+00  0.2356612964E-17  0.3373347593E-02
  0.2570463033E+00  0.1000000000E+01  0.4698893521E-01  0.1022518795E+00  0.8196447725E-18 -0.1276479848E-01  0.6183121447E+15  0.1031172262E+00  0.8228538964E-18 -0.9855225881E-02
  0.1429536967E+00  0.1000000000E+01  0.4698893521E-01  0.8456554764E-02  0.1391438708E-18 -0.9227639829E-02  0.6183121447E+15  0.9523034518E-02  0.1426170235E-18 -0.8423034985E-02
  0.4698893521E-01  0.1000000000E+01  0.4698893521E-01 -0.7193837583E-03  0.1264575353E-19 -0.9128396930E-02  0.6183121447E+15  0.4881605126E-04  0.1348416893E-19 -0.9580289856E-02
  0.0000000000E+00  0.1000000000E+01  0.4698893521E-01 -0.1799640626E-01  0.9212284145E-21  0.2090481619E-02  0.6183121447E+15 -0.1798397235E-01  0.8977232582E-21  0.1990552032E-02
  0.4000000000E+00  0.1000000000E+01  0.1429536967E+00  0.5672366913E+00  0.8836743569E-17 -0.1060309392E+00  0.6183121447E+15  0.5728525451E+00  0.8909991003E-17 -0.8513781043E-01
  0.3530110648E+00  0.1000000000E+01  0.1429536967E+00  0.3148296909E+00  0.5063454153E-17 -0.1443685088E+00  0.6183121447E+15  0.3202228691E+00  0.4947932017E-17 -0.1272547297E+00
  0.2570463033E+00  0.1000000000E+01  0.1429536967E+00  0.2301489799E+00  0.1649074080E-17 -0.8888290752E-01  0.6183121447E+15  0.2356429085E+00  0.1656592289E-17 -0.7964468563E-01
  0.1429536967E+00  0.1000000000E+01  0.1429536967E+00  0.4272588424E-01  0.4245515326E-18 -0.1096207794E+00  0.6183121447E+15  0.4683096617E-01  0.4260157237E-18 -0.1078384412E+00
  0.4698893521E-01  0.1000000000E+01  0.1429536967E+00 -0.3373978937E-02  0.5702444891E-19 -0.1201732481E-01  0.6183121447E+15 -0.2056573355E-02  0.5868692393E-19 -0.1240196804E-01
  0.0000000000E+00  0.1000000000E+01  0.1429536967E+00 -0.2121987005E-01  0.1086880788E-21 -0.1542051427E-02  0.6183121447E+15 -0.2122291969E-01 -0.1919759291E-21 -0.1509437228E-02
  0.4000000000E+00  0.1000000000E+01  0.2570463033E+00  0.6072737791E+00  0.1795945641E-17 -0.3310802262E+00  0.6183121447E+15  0.6239258334E+00  0.1817938808E-17 -0.2974714370E+00
  0.3530110648E+00  0.1000000000E+01  0.2570463033E+00  0.4454429029E+00  0.9465038321E-18 -0.3797327919E+00  0.6183121447E+15  0.4636159533E+00  0.1351764370E-17 -0.3514944337E+00
  0.2570463033E+00  0.1000000000E+01  0.2570463033E+00  0.2872864952E+00  0.6315927825E-18 -0.2682145134E+00  0.6183121447E+15  0.3052722307E+00  0.6293332394E-18 -0.2530590208E+00
  0.1429536967E+00  0.1000000000E+01  0.2570463033E+00  0.9325290996E-01  0.6724431674E-18 -0.2725244038E+00  0.6183121447E+15  0.1037061270E+00  0.6710030641E-18 -0.2686650925E+00
  0.4698893521E-01  0.1000000000E+01  0.2570463033E+00  0.1443362779E-01  0.6983335586E-18 -0.5308801452E-01  0.6183121447E+15  0.1648139619E-01  0.7032166579E-18 -0.5272908327E-01
  0.0000000000E+00  0.1000000000E+01  0.2570463033E+00 -0.1410342769E-01 -0.3912577554E-20 -0.1356125343E-02  0.6183121447E+15 -0.1410704963E-01 -0.3072283801E-20 -0.1209281884E-02
  0.4000000000E+00  0.1000000000E+01  0.3530110648E+00  0.6074699577E+00  0.1578494453E-17 -0.5385133657E+00  0.6183121447E+15  0.6314718190E+00  0.1562761165E-17 -0.5079447383E+00
  0.3530110648E+00  0.1000000000E+01  0.3530110648E+00  0.4450674647E+00  0.1284309731E-17 -0.5632251430E+00  0.6183121447E+15  0.4749084514E+00  0.1290105851E-17 -0.5360922958E+00
  0.2570463033E+00  0.1000000000E+01  0.3530110648E+00  0.2889505568E+00  0.2079618051E-18 -0.4452539129E+00  0.6183121447E+15  0.3192012552E+00 -0.1612851946E-19 -0.4295824030E+00
  0.1429536967E+00  0.1000000000E+01  0.3530110648E+00  0.9394959108E-01  0.9806883378E-18 -0.4005469936E+00  0.6183121447E+15  0.1107675177E+00  0.9386091203E-18 -0.3954379214E+00
  0.4698893521E-01  0.1000000000E+01  0.3530110648E+00  0.1608309020E-01  0.2704679286E-18 -0.1125710688E+00  0.6183121447E+15  0.2009084223E-01  0.2629012938E-18 -0.1116762551E+00
  0.0000000000E+00  0.1000000000E+01  0.3530110648E+00 -0.1415153836E-01  0.4788225431E-20 -0.1434752300E-02  0.6183121447E+15 -0.1415721736E-01  0.5384887421E-20 -0.1316846085E-02
  0.4000000000E+00  0.1000000000E+01  0.4000000000E+00  0.5789331430E+00  0.3476870532E-17 -0.6366399632E+00  0.6183121447E+15  0.6036967398E+00  0.3483560388E-17 -0.6129617917E+00
  0.3530110648E+00  0.1000000000E+01  0.4000000000E+00  0.4665837259E+00  0.2845960343E-17 -0.6568256793E+00  0.6183121447E+15  0.5004567905E+00  0.2780595190E-17 -0.6355415623E+00
  0.2570463033E+00  0.1000000000E+01  0.4000000000E+00  0.2872158332E+00  0.2192526804E-18 -0.5273022844E+00  0.6183121447E+15  0.3225191905E+00  0.3050490826E-18 -0.5134508250E+00
  0.1429536967E+00  0.1000000000E+01  0.4000000000E+00  0.1026510920E+00  0.1072618916E-17 -0.4604084759E+00  0.6183121447E+15  0.1223711065E+00  0.1101744329E-17 -0.4559201680E+00
  0.4698893521E-01  0.1000000000E+01  0.4000000000E+00  0.1231161635E-01  0.2134419675E-18 -0.1380868990E+00  0.6183121447E+15  0.1729706464E-01  0.2113070398E-18 -0.1373295470E+00
  0.0000000000E+00  0.1000000000E+01  0.4000000000E+00 -0.6902791809E-02  0.8202484053E-20 -0.2528913734E-02  0.6183121447E+15 -0.6769480316E-02  0.7869777442E-20 -0.2532497997E-02
ZONE I=6, J=6, K=1, F=POINT
  0.8000000000E+00  0.1000000000E+01  0.0000000000E+00  0.1836760244E-01 -0.7962639733E-19 -0.1123340024E-01  0.6183121447E+15  0.1821309995E-01 -0.8238106078E-19 -0.1186198151E-01
  0.7530110648E+00  0.1000000000E+01  0.0000000000E+00  0.2798342755E-02  0.1051088873E-18  0.5966158089E-02  0.6183121447E+15  0.2161446976E-02  0.8649280295E-19  0.5789854905E-02
  0.6570463033E+00  0.1000000000E+01  0.0000000000E+00  0.3824503766E-03  0.3068609504E-19  0.1094134164E-03  0.6183121447E+15 -0.3674437612E-03  0.2040229206E-19  0.1746691514E-03
  0.5429536967E+00  0.1000000000E+01  0.0000000000E+00  0.1816232266E-02  0.5097057983E-19  0.6861011624E-02  0.6183121447E+15  0.1217881607E-02  0.3342590841E-19  0.6864149401E-02
  0.4469889352E+00  0.1000000000E+01  0.0000000000E+00 -0.9951594370E-03 -0.7087451426E-20  0.3791582288E-03  0.6183121447E+15 -0.1466987407E-02 -0.2504848687E-19  0.4355181328E-03
  0.4000000000E+00  0.1000000000E+01  0.0000000000E+00  0.1545152136E-01  0.3239996947E-19  0.6168280940E-02  0.6183121447E+15  0.1526290831E-01  0.3284098329E-19  0.6623985109E-02
  0.8000000000E+00  0.1000000000E+01  0.4698893521E-01  0.3102572389E+00 -0.2538131010E-16  0.2680986344E-01  0.6183121447E+15  0.3104206293E+00 -0.2537992304E-16  0.3028705364E-01
  0.7530110648E+00  0.1000000000E+01  0.4698893521E-01  0.5093460165E+00 -0.2496995847E-16 -0.3274755152E-01  0.6183121447E+15  0.5081012461E+00 -0.2490425906E-16 -0.2809517353E-01
  0.6570463033E+00  0.1000000000E+01  0.4698893521E-01  0.2971139939E+00 -0.5303668158E-17 -0.4997080851E-02  0.6183121447E+15  0.2960616198E+00 -0.5307342002E-17  0.2333319607E-02
  0.5429536967E+00  0.1000000000E+01  0.4698893521E-01  0.3296708083E+00  0.4203780364E-17  0.1250081808E-02  0.6183121447E+15  0.3300241467E+00  0.4214910115E-17  0.9492049786E-02
  0.4469889352E+00  0.1000000000E+01  0.4698893521E-01  0.2028573188E+00  0.3661592095E-17  0.6329626521E-02  0.6183121447E+15  0.2036726885E+00  0.3650680371E-17  0.1262853778E-01
  0.4000000000E+00  0.1000000000E+01  0.4698893521E-01  0.3069998990E+00  0.2449601059E-17 -0.3822675366E-01  0.6183121447E+15  0.3077391148E+00  0.2445489395E-17 -0.3319240911E-01
  0.8000000000E+00  0.1000000000E+01  0.1429536967E+00  0.9103457333E+00 -0.5648738842E-16 -0.3008635044E+00  0.6183121447E+15  0.9053432436E+00 -0.5661392992E-16 -0.2868302012E+00
  0.7530110648E+00  0.1000000000E+01  0.1429536967E+00  0.1228497788E+01 -0.3688754225E-16 -0.1643188874E+00  0.6183121447E+15  0.1222164730E+01 -0.3696119465E-16 -0.1466574565E+00
  0.6570463033E+00  0.1000000000E+01  0.1429536967E+00  0.8225411910E+00 -0.6497370602E-17 -0.1734103131E+00  0.6183121447E+15  0.8181791201E+00 -0.6302433552E-17 -0.1494103798E+00
  0.5429536967E+00  0.1000000000E+01  0.1429536967E+00  0.7789661042E+00  0.8839621738E-17 -0.4250475101E-01  0.6183121447E+15  0.7802740730E+00  0.8891773065E-17 -0.1609758337E-01
  0.4469889352E+00  0.1000000000E+01  0.1429536967E+00  0.4937785775E+00  0.8627116414E-17 -0.1273338909E+00  0.6183121447E+15  0.4983887302E+00  0.8483020912E-17 -0.1036801411E+00
  0.4000000000E+00  0.1000000000E+01  0.1429536967E+00  0.6184296036E+00  0.9547930885E-17 -0.1054898547E+00  0.6183121447E+15  0.6236707173E+00  0.9618228507E-17 -0.8460634234E-01
  0.8000000000E+00  0.1000000000E+01  0.2570463033E+00  0.1675885401E+01 -0.1705300731E-16 -0.7704391512E+00  0.6183121447E+15  0.1660739644E+01 -0.1707903910E-16 -0.7495037430E+00
  0.7530110648E+00  0.1000000000E+01  0.2570463033E+00  0.1601381570E+01 -0.1279145725E-16 -0.5305902980E+00  0.6183121447E+15  0.1584775803E+01 -0.1235361043E-16 -0.5051952866E+00
  0.6570463033E+00  0.1000000000E+01  0.2570463033E+00  0.1220224419E+01 -0.7385419477E-17 -0.4932675610E+00  0.6183121447E+15  0.1207851436E+01 -0.7048361534E-17 -0.4582995249E+00
  0.5429536967E+00  0.1000000000E+01  0.2570463033E+00  0.9528174353E+00  0.7116796563E-18 -0.2602152849E+00  0.6183121447E+15  0.9538732584E+00  0.7116284932E-18 -0.2179431182E+00
  0.4469889352E+00  0.1000000000E+01  0.2570463033E+00  0.6683657105E+00  0.1710228657E-17 -0.3736755208E+00  0.6183121447E+15  0.6808479122E+00  0.2196466714E-17 -0.3351524546E+00
  0.4000000000E+00  0.1000000000E+01  0.2570463033E+00  0.6386653559E+00  0.1826304623E-17 -0.3304480762E+00  0.6183121447E+15  0.6546470337E+00  0.1847674167E-17 -0.2968731327E+00
  0.8000000000E+00  0.1000000000E+01  0.3530110648E+00  0.1684763279E+01 -0.3965925176E-17 -0.1135085062E+01  0.6183121447E+15  0.1662487217E+01 -0.3952991587E-17 -0.1118562194E+01
  0.7530110648E+00  0.1000000000E+01  0.3530110648E+00  0.1656357764E+01  0.1896918848E-17 -0.9305270952E+00  0.6183121447E+15  0.1632013125E+01  0.5252376550E-18 -0.9113360924E+00
  0.6570463033E+00  0.1000000000E+01  0.3530110648E+00  0.1276898103E+01 -0.5598536162E-17 -0.7797306219E+00  0.6183121447E+15  0.1254179854E+01 -0.5207693855E-17 -0.7518983580E+00
  0.5429536967E+00  0.1000000000E+01  0.3530110648E+00  0.9841246971E+00 -0.5966985929E-17 -0.5099035825E+00  0.6183121447E+15  0.9830750989E+00 -0.6194184561E-17 -0.4727263092E+00
  0.4469889352E+00  0.1000000000E+01  0.3530110648E+00  0.6506381277E+00  0.9789445281E-18 -0.5707682049E+00  0.6183121447E+15  0.6721314959E+00  0.7351807635E-18 -0.5368114449E+00
  0.4000000000E+00  0.1000000000E+01  0.3530110648E+00  0.6408119084E+00  0.1551601035E-17 -0.5383391488E+00  0.6183121447E+15  0.6650369791E+00  0.1532136699E-17 -0.5077385631E+00
  0.8000000000E+00  0.1000000000E+01  0.4000000000E+00  0.1693990391E+01 -0.1128996789E-16 -0.1342353252E+01  0.6183121447E+15  0.1669361985E+01 -0.1128156073E-16 -0.1333346699E+01
  0.7530110648E+00  0.1000000000E+01  0.4000000000E+00  0.1545550836E+01 -0.6894280383E-17 -0.1081587742E+01  0.6183121447E+15  0.1518828023E+01 -0.7127947640E-17 -0.1069862723E+01
  0.6570463033E+00  0.1000000000E+01  0.4000000000E+00  0.1233753661E+01 -0.3678304023E-17 -0.9239327483E+00  0.6183121447E+15  0.1206764213E+01 -0.3671441320E-17 -0.9066248799E+00
  0.5429536967E+00  0.1000000000E+01  0.4000000000E+00  0.9385349567E+00  0.4055367853E-17 -0.6660306413E+00  0.6183121447E+15  0.9363283604E+00  0.4089916101E-17 -0.6426373068E+00
  0.4469889352E+00  0.1000000000E+01  0.4000000000E+00  0.6866281064E+00  0.4181950364E-17 -0.6862354750E+00  0.6183121447E+15  0.7103392828E+00  0.4664842522E-17 -0.6629364037E+00
  0.4000000000E+00  0.1000000000E+01  0.4000000000E+00  0.5915772758E+00  0.3499529240E-17 -0.6359057117E+00  0.6183121447E+15  0.6159661312E+00  0.3501757716E-17 -0.6122364528E+00
ZONE I=6, J=6, K=1, F=POINT
  0.1200000000E+01  0.1000000000E+01  0.0000000000E+00 -0.3161539092E-01  0.5948193781E-19  0.3656137575E-01  0.6183121447E+15 -0.3055570519E-01  0.6184437772E-19  0.3657709725E-01
  0.1153011065E+01  0.1000000000E+01  0.0000000000E+00 -0.5341537141E-02 -0.2249114240E-18 -0.9591196533E-02  0.6183121447E+15 -0.4189855808E-02 -0.1784496098E-18 -0.9641977378E-02
  0.1057046303E+01  0.1000000000E+01  0.0000000000E+00  0.2115443512E-02  0.2182557229E-19  0.5934122858E-02  0.6183121447E+15  0.3003307240E-02  0.4448018274E-19  0.5972252922E-02
  0.9429536967E+00  0.1000000000E+01  0.0000000000E+00 -0.1959334036E-02  0.8884057200E-20 -0.8263902341E-02  0.6183121447E+15 -0.1262727791E-02  0.7202418681E-20 -0.8268715950E-02
  0.8469889352E+00  0.1000000000E+01  0.0000000000E+00  0.3593847879E-02 -0.1724286886E-19  0.5474723911E-02  0.6183121447E+15  0.4083304655E-02 -0.1866710718E-19  0.5319119257E-02
  0.8000000000E+00  0.1000000000E+01  0.0000000000E+00 -0.2681368085E-01 -0.8919222477E-19 -0.1069637600E-01  0.6183121447E+15 -0.2686774096E-01 -0.9212496518E-19 -0.1133976932E-01
  0.1200000000E+01  0.1000000000E+01  0.4698893521E-01  0.2040643379E+01 -0.4155022732E-16 -0.1860932791E+00  0.6183121447E+15  0.2044571042E+01 -0.4170006917E-16 -0.2029730320E+00
  0.1153011065E+01  0.1000000000E+01  0.4698893521E-01  0.1376907870E+01 -0.2648526116E-16 -0.4010694836E-01  0.6183121447E+15  0.1377308898E+01 -0.2648166205E-16 -0.5398999422E-01
  0.1057046303E+01  0.1000000000E+01  0.4698893521E-01  0.1274862236E+01 -0.1295311809E-16 -0.7720273330E-01  0.6183121447E+15  0.1275404339E+01 -0.1295512571E-16 -0.8275035381E-01
  0.9429536967E+00  0.1000000000E+01  0.4698893521E-01  0.7075313544E+00 -0.1622308147E-16 -0.6245839526E-01  0.6183121447E+15  0.7095811408E+00 -0.1627779301E-16 -0.6361864721E-01
  0.8469889352E+00  0.1000000000E+01  0.4698893521E-01  0.6289185742E+00 -0.2959010420E-16 -0.5959602540E-01  0.6183121447E+15  0.6299833677E+00 -0.2963920303E-16 -0.5777717616E-01
  0.8000000000E+00  0.1000000000E+01  0.4698893521E-01  0.2491667283E+00 -0.2468367038E-16  0.2886989559E-01  0.6183121447E+15  0.2502704044E+00 -0.2469828722E-16  0.3229800567E-01
  0.1200000000E+01  0.1000000000E+01  0.1429536967E+00  0.4555382658E+01 -0.5853833072E-16 -0.5421196578E+00  0.6183121447E+15  0.4559562387E+01 -0.5854876548E-16 -0.5489837738E+00
  0.1153011065E+01  0.1000000000E+01  0.1429536967E+00  0.3155438633E+01 -0.6935609304E-16 -0.7444091305E+00  0.6183121447E+15  0.3150731850E+01 -0.6962926987E-16 -0.7504019071E+00
  0.1057046303E+01  0.1000000000E+01  0.1429536967E+00  0.2864493327E+01 -0.4196691261E-16 -0.5291359046E+00  0.6183121447E+15  0.2858746120E+01 -0.4196256214E-16 -0.5326866236E+00
  0.9429536967E+00  0.1000000000E+01  0.1429536967E+00  0.1716208355E+01 -0.3766241721E-16 -0.6417393959E+00  0.6183121447E+15  0.1713530056E+01 -0.3765333215E-16 -0.6372502730E+00
  0.8469889352E+00  0.1000000000E+01  0.1429536967E+00  0.1508565512E+01 -0.5343758416E-16 -0.3142905597E+00  0.6183121447E+15  0.1504518183E+01 -0.5339871333E-16 -0.3035237774E+00
  0.8000000000E+00  0.1000000000E+01  0.1429536967E+00  0.8268628295E+00 -0.5869679187E-16 -0.3024519949E+00  0.6183121447E+15  0.8234446514E+00 -0.5883798479E-16 -0.2883883839E+00
  0.1200000000E+01  0.1000000000E+01  0.2570463033E+00  0.4307360017E+01 -0.1314152599E-16 -0.1512209704E+01  0.6183121447E+15  0.4306138332E+01 -0.1307806784E-16 -0.1504821863E+01
  0.1153011065E+01  0.1000000000E+01  0.2570463033E+00  0.3841587881E+01 -0.4781335821E-16 -0.1749509902E+01  0.6183121447E+15  0.3839494890E+01 -0.4740540592E-16 -0.1743355809E+01
  0.1057046303E+01  0.1000000000E+01  0.2570463033E+00  0.3159982903E+01 -0.4110417092E-16 -0.1347674903E+01  0.6183121447E+15  0.3151911924E+01 -0.4112168732E-16 -0.1342370174E+01
  0.9429536967E+00  0.1000000000E+01  0.2570463033E+00  0.2374878247E+01 -0.3753649090E-16 -0.1417281979E+01  0.6183121447E+15  0.2363614708E+01 -0.3691393218E-16 -0.1407725757E+01
  0.8469889352E+00  0.1000000000E+01  0.2570463033E+00  0.1972138940E+01 -0.1920914274E-16 -0.8311787660E+00  0.6183121447E+15  0.1960360522E+01 -0.1939657460E-16 -0.8146719251E+00
  0.8000000000E+00  0.1000000000E+01  0.2570463033E+00  0.1637521744E+01 -0.1721033823E-16 -0.7728090868E+00  0.6183121447E+15  0.1623049288E+01 -0.1721894222E-16 -0.7515785555E+00
  0.1200000000E+01  0.1000000000E+01  0.3530110648E+00  0.4209493232E+01  0.1840226370E-16 -0.2494556376E+01  0.6183121447E+15  0.4210918196E+01  0.1843375815E-16 -0.2488626914E+01
  0.1153011065E+01  0.1000000000E+01  0.3530110648E+00  0.3564250377E+01 -0.1896005932E-17 -0.2401190940E+01  0.6183121447E+15  0.3560841430E+01 -0.1823750920E-17 -0.2394527508E+01
  0.1057046303E+01  0.1000000000E+01  0.3530110648E+00  0.3021430433E+01 -0.2104981597E-16 -0.2018210389E+01  0.6183121447E+15  0.3012638593E+01 -0.2117428524E-16 -0.2008418577E+01
  0.9429536967E+00  0.1000000000E+01  0.3530110648E+00  0.2306161617E+01 -0.2466406332E-16 -0.1849439762E+01  0.6183121447E+15  0.2292171719E+01 -0.2425422865E-16 -0.1840654645E+01
  0.8469889352E+00  0.1000000000E+01  0.3530110648E+00  0.2026467598E+01 -0.8580853156E-17 -0.1302366937E+01  0.6183121447E+15  0.2006187243E+01 -0.9278024694E-17 -0.1289661883E+01
  0.8000000000E+00  0.1000000000E+01  0.3530110648E+00  0.1638738158E+01 -0.3904283061E-17 -0.1135280671E+01  0.6183121447E+15  0.1616011119E+01 -0.3885098062E-17 -0.1118822271E+01
  0.1200000000E+01  0.1000000000E+01  0.4000000000E+00  0.3777958417E+01  0.2048491224E-16 -0.2721998199E+01  0.6183121447E+15  0.3779446461E+01  0.2051149153E-16 -0.2706839276E+01
  0.1153011065E+01  0.1000000000E+01  0.4000000000E+00  0.3496302150E+01  0.1153511616E-16 -0.2810538873E+01  0.6183121447E+15  0.3491779950E+01  0.1131231083E-16 -0.2796150880E+01
  0.1057046303E+01  0.1000000000E+01  0.4000000000E+00  0.2827576680E+01 -0.1129978348E-16 -0.2296331949E+01  0.6183121447E+15  0.2819242600E+01 -0.1137162754E-16 -0.2285307292E+01
  0.9429536967E+00  0.1000000000E+01  0.4000000000E+00  0.2252011356E+01 -0.2454327850E-16 -0.2103081015E+01  0.6183121447E+15  0.2238156941E+01 -0.2430728137E-16 -0.2093549845E+01
  0.8469889352E+00  0.1000000000E+01  0.4000000000E+00  0.1877066056E+01 -0.1747407207E-16 -0.1476137208E+01  0.6183121447E+15  0.1854683892E+01 -0.1761840199E-16 -0.1467145751E+01
  0.8000000000E+00  0.1000000000E+01  0.4000000000E+00  0.1689881043E+01 -0.1126781029E-16 -0.1345472804E+01  0.6183121447E+15  0.1664625294E+01 -0.1125817404E-16 -0.1336194594E+01
ZONE I=6, J=6, K=1, F=POINT
  0.1600000000E+01  0.1000000000E+01  0.0000000000E+00  0.1294158835E+00 -0.8806533625E-18 -0.7206720229E-01  0.6183121447E+15  0.1303189116E+00 -0.1003784370E-17 -0.7159553824E-01
  0.1553011065E+01  0.1000000000E+01  0.0000000000E+00  0.9920564004E-02 -0.1290751290E-17  0.4553753630E-01  0.6183121447E+15  0.1092882541E-01 -0.1373380246E-17  0.4541959518E-01
  0.1457046303E+01  0.1000000000E+01  0.0000000000E+00 -0.7634926916E-02 -0.7325326710E-19 -0.3350710363E-02  0.6183121447E+15 -0.6585681201E-02 -0.1168103815E-18 -0.3238171209E-02
  0.1342953697E+01  0.1000000000E+01  0.0000000000E+00  0.5209408552E-02  0.3981723270E-18  0.2987685306E-01  0.6183121447E+15  0.6356449392E-02  0.4632440954E-18  0.2971632851E-01
  0.1246988935E+01  0.1000000000E+01  0.0000000000E+00 -0.7404417292E-02  0.1285738260E-18 -0.8235009203E-02  0.6183121447E+15 -0.6559620846E-02  0.1318265209E-18 -0.8220684223E-02
  0.1200000000E+01  0.1000000000E+01  0.0000000000E+00  0.5768611017E-01  0.6351516738E-19  0.3662597021E-01  0.6183121447E+15  0.5870508471E-01  0.6631742762E-19  0.3664272137E-01
  0.1600000000E+01  0.1000000000E+01  0.4698893521E-01  0.2927284235E+01 -0.8962771540E-16  0.2007019192E+00  0.6183121447E+15  0.2928956033E+01 -0.8965676761E-16  0.1964969859E+00
  0.1553011065E+01  0.1000000000E+01  0.4698893521E-01  0.3354002187E+01 -0.4559301821E-16 -0.2986291027E+00  0.6183121447E+15  0.3358690801E+01 -0.4544041638E-16 -0.3046225616E+00
  0.1457046303E+01  0.1000000000E+01  0.4698893521E-01  0.2328757328E+01 -0.5517419372E-17 -0.9482560447E-01  0.6183121447E+15  0.2333215690E+01 -0.5654556693E-17 -0.1032998725E+00
  0.1342953697E+01  0.1000000000E+01  0.4698893521E-01  0.2302302154E+01  0.2964786151E-16 -0.5828260341E-01  0.6183121447E+15  0.2307840554E+01  0.2968702512E-16 -0.6823282802E-01
  0.1246988935E+01  0.1000000000E+01  0.4698893521E-01  0.1756691009E+01 -0.5913243411E-17 -0.1264199980E-01  0.6183121447E+15  0.1762566477E+01 -0.5647258472E-17 -0.2834882674E-01
  0.1200000000E+01  0.1000000000E+01  0.4698893521E-01  0.2138643972E+01 -0.4576224596E-16 -0.1917596151E+00  0.6183121447E+15  0.2140383515E+01 -0.4587097978E-16 -0.2082783086E+00
  0.1600000000E+01  0.1000000000E+01  0.1429536967E+00  0.5875806154E+01 -0.2683017581E-15 -0.2004574592E+01  0.6183121447E+15  0.5864749417E+01 -0.2680670775E-15 -0.2014404659E+01
  0.1553011065E+01  0.1000000000E+01  0.1429536967E+00  0.7469505543E+01 -0.1498694031E-15 -0.1123256112E+01  0.6183121447E+15  0.7477439684E+01 -0.1501951121E-15 -0.1133860174E+01
  0.1457046303E+01  0.1000000000E+01  0.1429536967E+00  0.5299697195E+01  0.3106128355E-16 -0.1003596140E+01  0.6183121447E+15  0.5306874944E+01  0.3129462750E-16 -0.1016875486E+01
  0.1342953697E+01  0.1000000000E+01  0.1429536967E+00  0.5242199127E+01  0.1032732558E-15 -0.1903676786E+00  0.6183121447E+15  0.5248882215E+01  0.1035152509E-15 -0.2041243483E+00
  0.1246988935E+01  0.1000000000E+01  0.1429536967E+00  0.3952553109E+01  0.2784118099E-16 -0.6715240647E+00  0.6183121447E+15  0.3960111401E+01  0.2746461690E-16 -0.6802726275E+00
  0.1200000000E+01  0.1000000000E+01  0.1429536967E+00  0.4719431949E+01 -0.6268849702E-16 -0.5370386362E+00  0.6183121447E+15  0.4714239381E+01 -0.6259183812E-16 -0.5444521639E+00
  0.1600000000E+01  0.1000000000E+01  0.2570463033E+00  0.1016240405E+02  0.7733007282E-16 -0.4156604748E+01  0.6183121447E+15  0.1017357591E+02  0.7729438250E-16 -0.4162828505E+01
  0.1553011065E+01  0.1000000000E+01  0.2570463033E+00  0.8974070469E+01  0.1021758074E-15 -0.2942831465E+01  0.6183121447E+15  0.8984669185E+01  0.1020775963E-15 -0.2944002101E+01
  0.1457046303E+01  0.1000000000E+01  0.2570463033E+00  0.7484212581E+01  0.1768103510E-15 -0.2563087639E+01  0.6183121447E+15  0.7493968523E+01  0.1772295662E-15 -0.2563344687E+01
  0.1342953697E+01  0.1000000000E+01  0.2570463033E+00  0.5866943343E+01  0.1321424775E-15 -0.1163432711E+01  0.6183121447E+15  0.5870544420E+01  0.1323015471E-15 -0.1162896493E+01
  0.1246988935E+01  0.1000000000E+01  0.2570463033E+00  0.4715292352E+01  0.3910707475E-16 -0.1757641274E+01  0.6183121447E+15  0.4713850190E+01  0.3909051181E-16 -0.1751656312E+01
  0.1200000000E+01  0.1000000000E+01  0.2570463033E+00  0.4347099702E+01 -0.1344775427E-16 -0.1503658500E+01  0.6183121447E+15  0.4345809061E+01 -0.1336608411E-16 -0.1498462499E+01
  0.1600000000E+01  0.1000000000E+01  0.3530110648E+00  0.8188566924E+01  0.1514704101E-15 -0.4952075262E+01  0.6183121447E+15  0.8190830354E+01  0.1514338732E-15 -0.4945455513E+01
  0.1553011065E+01  0.1000000000E+01  0.3530110648E+00  0.8246543960E+01  0.1648735005E-15 -0.4670571741E+01  0.6183121447E+15  0.8254363864E+01  0.1649211030E-15 -0.4664314728E+01
  0.1457046303E+01  0.1000000000E+01  0.3530110648E+00  0.6908078285E+01  0.1746596434E-15 -0.3833710181E+01  0.6183121447E+15  0.6915943953E+01  0.1748704365E-15 -0.3823855775E+01
  0.1342953697E+01  0.1000000000E+01  0.3530110648E+00  0.5646187459E+01  0.1382338999E-15 -0.2630658149E+01  0.6183121447E+15  0.5649844251E+01  0.1382231894E-15 -0.2617532030E+01
  0.1246988935E+01  0.1000000000E+01  0.3530110648E+00  0.4333233335E+01  0.5224865283E-16 -0.2589272797E+01  0.6183121447E+15  0.4333912280E+01  0.5225688459E-16 -0.2580803476E+01
  0.1200000000E+01  0.1000000000E+01  0.3530110648E+00  0.4286140401E+01  0.1849006991E-16 -0.2495277089E+01  0.6183121447E+15  0.4284195054E+01  0.1850335735E-16 -0.2488949007E+01
  0.1600000000E+01  0.1000000000E+01  0.4000000000E+00  0.8201333598E+01  0.1434265322E-15 -0.5829444399E+01  0.6183121447E+15  0.8205125518E+01  0.1433841462E-15 -0.5831666009E+01
  0.1553011065E+01  0.1000000000E+01  0.4000000000E+00  0.7400197749E+01  0.1691812921E-15 -0.4810143324E+01  0.6183121447E+15  0.7408305223E+01  0.1692070270E-15 -0.4809764573E+01
  0.1457046303E+01  0.1000000000E+01  0.4000000000E+00  0.6631356801E+01  0.1585470270E-15 -0.4416762648E+01  0.6183121447E+15  0.6635438153E+01  0.1586296881E-15 -0.4409593413E+01
  0.1342953697E+01  0.1000000000E+01  0.4000000000E+00  0.5225357836E+01  0.1404305616E-15 -0.3005430117E+01  0.6183121447E+15  0.5229833672E+01  0.1406806347E-15 -0.2992375914E+01
  0.1246988935E+01  0.1000000000E+01  0.4000000000E+00  0.4282314516E+01  0.4844885023E-16 -0.3091935773E+01  0.6183121447E+15  0.4284546563E+01  0.4841475667E-16 -0.3076014712E+01
  0.1200000000E+01  0.1000000000E+01  0.4000000000E+00  0.3752106882E+01  0.2074376049E-16 -0.2711136294E+01  0.6183121447E+15  0.3754074995E+01  0.2075697468E-16 -0.2697998273E+01
ZONE I=6, J=6, K=1, F=POINT
  0.2000000000E+01  0.1000000000E+01  0.0000000000E+00  0.2402479237E+01  0.7354136154E-19  0.2123402763E+02  0.6183121447E+15  0.2430457732E+01  0.9436109186E-19  0.2215524691E+02
  0.1953011065E+01  0.1000000000E+01  0.0000000000E+00  0.1290118759E+01 -0.3736071022E-16 -0.1372327567E+00  0.6183121447E+15  0.1295151452E+01 -0.3611302379E-16 -0.1503602585E+00
  0.1857046303E+01  0.1000000000E+01  0.0000000000E+00 -0.3083246837E+00 -0.1891688389E-16  0.1519060227E+00  0.6183121447E+15 -0.3079486884E+00 -0.1934244380E-16  0.1504067292E+00
  0.1742953697E+01  0.1000000000E+01  0.0000000000E+00  0.1328650728E+00  0.2393258960E-18 -0.3803022505E-01  0.6183121447E+15  0.1346131827E+00  0.1432379348E-18 -0.3752566529E-01
  0.1646988935E+01  0.1000000000E+01  0.0000000000E+00 -0.1287417492E+00  0.3611794756E-18  0.6084309600E-01  0.6183121447E+15 -0.1270739734E+00  0.3195096259E-18  0.5995392183E-01
  0.1600000000E+01  0.1000000000E+01  0.0000000000E+00  0.8811031171E-01 -0.9585224634E-18 -0.8432965317E-01  0.6183121447E+15  0.8854810484E-01 -0.1084276881E-17 -0.8245741439E-01
  0.2000000000E+01  0.1000000000E+01  0.4698893521E-01 -0.1134716332E-01  0.7417974463E-18  0.4848160411E+02  0.6183121447E+15 -0.5384960233E-01  0.6855677775E-18  0.4865731402E+02
  0.1953011065E+01  0.1000000000E+01  0.4698893521E-01  0.1097423286E+02  0.1407970013E-15  0.1480683281E+01  0.6183121447E+15  0.1096331566E+02  0.1395723271E-15  0.1498501121E+01
  0.1857046303E+01  0.1000000000E+01  0.4698893521E-01  0.1174464653E+02  0.3023636576E-15 -0.1867340358E+01  0.6183121447E+15  0.1174865652E+02  0.3027683447E-15 -0.1867138811E+01
  0.1742953697E+01  0.1000000000E+01  0.4698893521E-01  0.5850603052E+01 -0.2629844520E-16 -0.6687782628E+00  0.6183121447E+15  0.5856000708E+01 -0.2597679166E-16 -0.6769474094E+00
  0.1646988935E+01  0.1000000000E+01  0.4698893521E-01  0.4426796972E+01 -0.1193332634E-15 -0.6587106716E+00  0.6183121447E+15  0.4426686518E+01 -0.1195181244E-15 -0.6625604832E+00
  0.1600000000E+01  0.1000000000E+01  0.4698893521E-01  0.2765148653E+01 -0.8680859953E-16  0.1863622351E+00  0.6183121447E+15  0.2775395673E+01 -0.8663335150E-16  0.1768915883E+00
  0.2000000000E+01  0.1000000000E+01  0.1429536967E+00 -0.2810424782E+00  0.2693880247E-17  0.5050187169E+02  0.6183121447E+15 -0.2564951181E+00  0.2716899961E-17  0.5043952880E+02
  0.1953011065E+01  0.1000000000E+01  0.1429536967E+00  0.2807294988E+01 -0.5139171625E-15  0.1650090890E+02  0.6183121447E+15  0.2796364070E+01 -0.5135161943E-15  0.1653788460E+02
  0.1857046303E+01  0.1000000000E+01  0.1429536967E+00  0.1278199817E+02 -0.2475750408E-15 -0.3554384365E+01  0.6183121447E+15  0.1278800546E+02 -0.2482122359E-15 -0.3552085424E+01
  0.1742953697E+01  0.1000000000E+01  0.1429536967E+00  0.9889226176E+01  0.9533115789E-17 -0.4268353273E+01  0.6183121447E+15  0.9895767750E+01  0.9554506943E-17 -0.4280010336E+01
  0.1646988935E+01  0.1000000000E+01  0.1429536967E+00  0.8978832122E+01 -0.1538403024E-15 -0.2287548448E+01  0.6183121447E+15  0.8977444036E+01 -0.1535323060E-15 -0.2296493884E+01
  0.1600000000E+01  0.1000000000E+01  0.1429536967E+00  0.5507302020E+01 -0.2846889313E-15 -0.2004139001E+01  0.6183121447E+15  0.5534562002E+01 -0.2848797314E-15 -0.2019004151E+01
  0.2000000000E+01  0.1000000000E+01  0.2570463033E+00  0.1896067231E-01  0.1075348540E-17  0.4987130243E+02  0.6183121447E+15  0.1816009228E-01  0.1022637386E-17  0.4987682431E+02