TITLE = "Generated from ../MESH/Convergence_0000000000.hmesh and Convergence_0000009900.hsol"
VARIABLES = "x","y","z","veloT_x","veloT_y","veloT_z","slr_4","velo_x","velo_y","velo_z"
ZONE I=6, J=6, K=1, F=POINT
  0.4000000000E+00  0.1000000000E+01  0.0000000000E+00 -0.3100002524E+00 -0.1759117595E-18  0.2521431407E-01  0.8075194837E+16  0.8944268510E-01 -0.7748288590E-19  0.2887945739E-01
  0.3530110648E+00  0.1000000000E+01  0.0000000000E+00 -0.2989818951E+00 -0.1881902484E-19  0.8905182180E-02  0.8075194837E+16  0.1345220417E+00 -0.7382310283E-19  0.7056919830E-02
  0.2570463033E+00  0.1000000000E+01  0.0000000000E+00 -0.2386103787E+00 -0.5333404085E-20  0.1640841219E-01  0.8075194837E+16  0.1227767812E+00 -0.3452182844E-19  0.7537064774E-02
  0.1429536967E+00  0.1000000000E+01  0.0000000000E+00 -0.2450245993E+00  0.9924526771E-20 -0.8970551045E-02  0.8075194837E+16  0.1089700687E+00 -0.1613330217E-20 -0.7169273972E-02
  0.4698893521E-01  0.1000000000E+01  0.0000000000E+00 -0.2028328319E+00 -0.4594139366E-19  0.4193940905E-01  0.8075194837E+16  0.7332014334E-01 -0.2874815745E-19  0.1059237482E-01
  0.0000000000E+00  0.1000000000E+01  0.0000000000E+00 -0.4035581739E-01  0.4809904504E-21  0.3260690208E-01  0.8075194837E+16 -0.1210314725E-01  0.3099674558E-21  0.2982763051E-02
  0.4000000000E+00  0.1000000000E+01  0.4698893521E-01 -0.9207858383E+00  0.9578698629E-17 -0.4794736790E+00  0.8075194837E+16 -0.1735170675E+00  0.5302993609E-17  0.8273126080E+00
  0.3530110648E+00  0.1000000000E+01  0.4698893521E-01 -0.1054362974E+01  0.1550062226E-16 -0.2119757537E+00  0.8075194837E+16 -0.2363917095E+00  0.5488914003E-17  0.8663465215E+00
  0.2570463033E+00  0.1000000000E+01  0.4698893521E-01 -0.8688766642E+00  0.2711121370E-17  0.5471078352E-01  0.8075194837E+16 -0.1783867516E+00  0.2825545691E-17  0.7412665285E+00
  0.1429536967E+00  0.1000000000E+01  0.4698893521E-01 -0.1005275323E+01 -0.2029028000E-17  0.4693765932E+00  0.8075194837E+16 -0.3117168514E+00  0.6262847530E-20  0.6683184164E+00
  0.4698893521E-01  0.1000000000E+01  0.4698893521E-01 -0.7724834556E+00 -0.9206628528E-18  0.7145119822E+00  0.8075194837E+16 -0.2575496683E+00 -0.3975343707E-18  0.4304987692E+00
  0.0000000000E+00  0.1000000000E+01  0.4698893521E-01 -0.5322384991E-01  0.1048584391E-19  0.2080264470E+00  0.8075194837E+16 -0.2380313292E-01  0.4272415874E-20 -0.6131229271E-01
  0.4000000000E+00  0.1000000000E+01  0.1429536967E+00 -0.1201332665E+01 -0.1526658965E-16 -0.8632567140E+00  0.8075194837E+16 -0.3066008538E-01  0.1480283086E-17  0.8591623920E+00
  0.3530110648E+00  0.1000000000E+01  0.1429536967E+00 -0.1270434837E+01  0.1109557620E-16 -0.7674575015E+00  0.8075194837E+16  0.7108680299E-01 -0.2263143838E-18  0.7660089449E+00
  0.2570463033E+00  0.1000000000E+01  0.1429536967E+00 -0.1216124327E+01  0.2557918313E-17 -0.2967071037E+00  0.8075194837E+16 -0.4473547421E-01  0.3533203844E-17  0.7270344477E+00
  0.1429536967E+00  0.1000000000E+01  0.1429536967E+00 -0.1443443020E+01  0.1435446379E-17  0.3350377235E+00  0.8075194837E+16 -0.1169557378E+00  0.1649433910E-17  0.6815224931E+00
  0.4698893521E-01  0.1000000000E+01  0.1429536967E+00 -0.8912498227E+00 -0.3265401640E-17  0.7777312532E+00  0.8075194837E+16  0.1518860066E+00 -0.1707946443E-17  0.4160574005E+00
  0.0000000000E+00  0.1000000000E+01  0.1429536967E+00 -0.1030233319E-01  0.5181859038E-19  0.2079307208E+00  0.8075194837E+16 -0.1630005478E-01  0.2435917243E-19 -0.1132177333E+00
  0.4000000000E+00  0.1000000000E+01  0.2570463033E+00 -0.1393126528E+01  0.2983149073E-17 -0.1141807157E+01  0.8075194836E+16 -0.9660773116E-01  0.3977121689E-17 -0.4046933839E-01
  0.3530110648E+00  0.1000000000E+01  0.2570463033E+00 -0.1271643674E+01 -0.9531855187E-19 -0.7629953171E+00  0.8075194837E+16  0.4315049006E+00  0.1482114029E-16  0.2658985413E+00
  0.2570463033E+00  0.1000000000E+01  0.2570463033E+00 -0.1443019961E+01  0.2490449365E-17 -0.3556664762E+00  0.8075194837E+16  0.2312423411E+00  0.2328291342E-17  0.4363527699E+00
  0.1429536967E+00  0.1000000000E+01  0.2570463033E+00 -0.1821057925E+01  0.1744251560E-17  0.7234982335E-01  0.8075194837E+16  0.2811368208E+00  0.1564809269E-17  0.2639374397E+00
  0.4698893521E-01  0.1000000000E+01  0.2570463033E+00 -0.1080646444E+01  0.8520052866E-17  0.5299059249E+00  0.8075194837E+16  0.6040687526E+00  0.2856018622E-17  0.9782212602E-01
  0.0000000000E+00  0.1000000000E+01  0.2570463033E+00 -0.1036079395E-01 -0.6115780623E-19  0.1146570635E+00  0.8075194837E+16 -0.9352988247E-02 -0.1531404176E-19 -0.1564483865E+00
  0.4000000000E+00  0.1000000000E+01  0.3530110648E+00 -0.2902454071E+01  0.4086740455E-17 -0.1155861536E+01  0.8075194836E+16 -0.1131224854E+01  0.2381107023E-17  0.2939459150E+00
  0.3530110648E+00  0.1000000000E+01  0.3530110648E+00 -0.1753312487E+01  0.3291487733E-17 -0.6583798664E+00  0.8075194837E+16  0.1824818468E+00  0.3280941785E-17  0.4892231278E+00
  0.2570463033E+00  0.1000000000E+01  0.3530110648E+00 -0.1510631955E+01 -0.4076005707E-17 -0.3304555009E+00  0.8075194837E+16  0.5208494857E+00 -0.1513352033E-16  0.4397096614E+00
  0.1429536967E+00  0.1000000000E+01  0.3530110648E+00 -0.2061060339E+01 -0.3101454954E-17  0.2800935491E-01  0.8075194837E+16  0.7272201054E+00 -0.3306999855E-17  0.7730821242E-01
  0.4698893521E-01  0.1000000000E+01  0.3530110648E+00 -0.1119851895E+01 -0.5239586872E-17  0.4787878498E+00  0.8075194837E+16  0.1000577342E+01  0.4879389470E-19 -0.1064836983E+00
  0.0000000000E+00  0.1000000000E+01  0.3530110648E+00 -0.8330739150E-02  0.2695895830E-19  0.6311547877E-01  0.8075194837E+16 -0.1369836275E-01  0.3858965731E-19 -0.2203025867E+00
  0.4000000000E+00  0.1000000000E+01  0.4000000000E+00 -0.2821580584E+01 -0.8794354834E-18 -0.1314136276E+01  0.8075194836E+16 -0.5308418793E+00 -0.1283070970E-17  0.8388059299E+00
  0.3530110648E+00  0.1000000000E+01  0.4000000000E+00 -0.1618737442E+01  0.6044410400E-17 -0.9929766464E+00  0.8075194837E+16  0.6441664224E+00  0.1887428655E-17  0.6352276833E+00
  0.2570463033E+00  0.1000000000E+01  0.4000000000E+00 -0.1487917140E+01 -0.3870028547E-17 -0.7137546669E+00  0.8075194837E+16  0.8056322186E+00  0.1286877757E-17  0.1560179691E+00
  0.1429536967E+00  0.1000000000E+01  0.4000000000E+00 -0.2111081826E+01  0.4234204183E-17 -0.2122982165E+00  0.8075194837E+16  0.1026264264E+01  0.4223877939E-17 -0.1301890995E+00
  0.4698893521E-01  0.1000000000E+01  0.4000000000E+00 -0.1133487744E+01 -0.1695365755E-17  0.1954465715E+00  0.8075194837E+16  0.1199150141E+01  0.4732312244E-18 -0.3379254828E+00
  0.0000000000E+00  0.1000000000E+01  0.4000000000E+00  0.1032768627E-01  0.6771407452E-19 -0.6797274309E-02  0.8075194837E+16  0.1178196262E-02  0.2478913894E-19 -0.2326184422E+00
ZONE I=6, J=6, K=1, F=POINT
  0.8000000000E+00  0.1000000000E+01  0.0000000000E+00 -0.5620239155E+00 -0.4004570331E-18  0.3575108462E-02  0.8075194836E+16  0.8852260585E-01 -0.3988350272E-18 -0.5950859440E-03
  0.7530110648E+00  0.1000000000E+01  0.0000000000E+00 -0.5505171444E+00 -0.1287638522E-16  0.3022253573E-01  0.8075194836E+16  0.9223173229E-01  0.1421846979E-17  0.2523025053E-01
  0.6570463033E+00  0.1000000000E+01  0.0000000000E+00 -0.4820270471E+00 -0.6157422181E-17  0.2967369799E-01  0.8075194836E+16  0.1168071993E+00  0.1743371160E-17  0.2023711796E-01
  0.5429536967E+00  0.1000000000E+01  0.0000000000E+00 -0.3982896626E+00 -0.1039795071E-16  0.4243473188E-01  0.8075194836E+16  0.1134386923E+00  0.3125463433E-17  0.2826259843E-01
  0.4469889352E+00  0.1000000000E+01  0.0000000000E+00 -0.3390608538E+00 -0.1042372574E-16  0.3150169949E-01  0.8075194837E+16  0.9728953694E-01  0.3060538270E-17  0.2231196150E-01
  0.4000000000E+00  0.1000000000E+01  0.0000000000E+00 -0.2859585283E+00 -0.1658468585E-18  0.2465480613E-01  0.8075194837E+16  0.1217875566E+00 -0.7700672434E-19  0.2802167102E-01
  0.8000000000E+00  0.1000000000E+01  0.4698893521E-01 -0.1279872634E+01 -0.2589236975E-17 -0.1294480684E+01  0.8075194836E+16 -0.5238007580E+00 -0.1051129974E-16  0.6705209000E+00
  0.7530110648E+00  0.1000000000E+01  0.4698893521E-01 -0.1024010240E+01  0.7762535036E-16 -0.1340813527E+01  0.8075194836E+16 -0.2174174410E+00  0.2868274297E-16  0.6384407440E+00
  0.6570463033E+00  0.1000000000E+01  0.4698893521E-01 -0.1099422813E+01 -0.2287223456E-16 -0.1430326214E+01  0.8075194836E+16 -0.2872561004E+00 -0.9847947196E-17  0.5446778165E+00
  0.5429536967E+00  0.1000000000E+01  0.4698893521E-01 -0.1052866564E+01 -0.2016660091E-16 -0.1350404392E+01  0.8075194836E+16 -0.2741133886E+00 -0.5736587417E-17  0.5308559242E+00
  0.4469889352E+00  0.1000000000E+01  0.4698893521E-01 -0.1141683829E+01  0.1317888479E-16 -0.7710408776E+00  0.8075194837E+16 -0.3767866830E+00  0.7162264335E-17  0.7713419135E+00
  0.4000000000E+00  0.1000000000E+01  0.4698893521E-01 -0.8845121495E+00  0.9485601934E-17 -0.4805054710E+00  0.8075194837E+16 -0.1335936799E+00  0.5152553573E-17  0.8265290176E+00
  0.8000000000E+00  0.1000000000E+01  0.1429536967E+00 -0.2106673212E+00 -0.1068045788E-15 -0.2389973874E+01  0.8075194836E+16  0.4126229764E+00 -0.8783082290E-16 -0.2730471768E+00
  0.7530110648E+00  0.1000000000E+01  0.1429536967E+00  0.1167747963E+00 -0.1016875451E-16 -0.2144602707E+01  0.8075194836E+16  0.8970975297E+00 -0.2987978271E-16  0.1098505308E-01
  0.6570463033E+00  0.1000000000E+01  0.1429536967E+00 -0.3978368304E+00  0.6703785915E-16 -0.1742819726E+01  0.8075194836E+16  0.5236707908E+00  0.3058679046E-16  0.2836626982E+00
  0.5429536967E+00  0.1000000000E+01  0.1429536967E+00 -0.6977673386E+00 -0.4155472674E-16 -0.1107253427E+01  0.8075194836E+16  0.2545709011E+00 -0.1300536521E-16  0.6672383025E+00
  0.4469889352E+00  0.1000000000E+01  0.1429536967E+00 -0.1200698702E+01  0.2563481382E-16 -0.9723486256E+00  0.8075194836E+16 -0.1529012854E+00  0.9395716583E-17  0.7924668128E+00
  0.4000000000E+00  0.1000000000E+01  0.1429536967E+00 -0.1147801819E+01 -0.1487458528E-16 -0.8635185072E+00  0.8075194837E+16  0.2617226821E-01  0.1937983947E-17  0.8592765902E+00
  0.8000000000E+00  0.1000000000E+01  0.2570463033E+00  0.9710788326E+00 -0.1802924834E-16 -0.3254978007E+01  0.8075194836E+16  0.1557353457E+01 -0.1834300149E-16 -0.1331540173E+01
  0.7530110648E+00  0.1000000000E+01  0.2570463033E+00  0.7104807827E+00 -0.2791197495E-16 -0.2947519930E+01  0.8075194836E+16  0.1604980757E+01 -0.6117639899E-17 -0.1109425169E+01
  0.6570463033E+00  0.1000000000E+01  0.2570463033E+00  0.1658932847E+00  0.5363203409E-16 -0.3068823063E+01  0.8075194836E+16  0.1437076587E+01  0.1810359762E-16 -0.1471576028E+01
  0.5429536967E+00  0.1000000000E+01  0.2570463033E+00 -0.6296024175E+00 -0.2438255565E-16 -0.2971557905E+01  0.8075194836E+16  0.4319588401E+00 -0.6608202354E-17 -0.1586293891E+01
  0.4469889352E+00  0.1000000000E+01  0.2570463033E+00 -0.1367004145E+01 -0.8805574746E-17 -0.1906888915E+01  0.8075194836E+16 -0.4279609262E+00  0.5782024073E-17 -0.7124078854E+00
  0.4000000000E+00  0.1000000000E+01  0.2570463033E+00 -0.1365128022E+01  0.2706663772E-17 -0.1141641771E+01  0.8075194836E+16 -0.6041822029E-01  0.3864044567E-17 -0.4005976511E-01
  0.8000000000E+00  0.1000000000E+01  0.3530110648E+00  0.1350856414E+01  0.3626476712E-17 -0.4019386074E+01  0.8075194836E+16  0.1965999888E+01  0.9062994873E-18 -0.7663747354E+00
  0.7530110648E+00  0.1000000000E+01  0.3530110648E+00  0.1278858779E+01 -0.1154716223E-15 -0.3711358614E+01  0.8075194836E+16  0.2414909914E+01 -0.4978421370E-16 -0.4869512593E+00
  0.6570463033E+00  0.1000000000E+01  0.3530110648E+00  0.1668885213E+01  0.6499142685E-16 -0.4254580247E+01  0.8075194836E+16  0.2732162360E+01 -0.2332141559E-16 -0.6296722320E+00
  0.5429536967E+00  0.1000000000E+01  0.3530110648E+00 -0.7514280492E+00  0.2029178892E-15 -0.4933953618E+01  0.8075194836E+16  0.6929202825E+00  0.7759243660E-16 -0.8081182414E+00
  0.4469889352E+00  0.1000000000E+01  0.3530110648E+00 -0.3664667988E+01  0.3136967033E-17 -0.2526117109E+01  0.8075194836E+16 -0.1576025923E+01 -0.1239887801E-16 -0.1643291402E+00
  0.4000000000E+00  0.1000000000E+01  0.3530110648E+00 -0.2848671855E+01  0.4501102932E-17 -0.1160845450E+01  0.8075194836E+16 -0.1071640081E+01  0.2957522976E-17  0.2921046111E+00
  0.8000000000E+00  0.1000000000E+01  0.4000000000E+00  0.1532340413E+01 -0.1245595875E-16 -0.3832894724E+01  0.8075194836E+16  0.1866185785E+01 -0.1212687991E-16 -0.2022385646E+00
  0.7530110648E+00  0.1000000000E+01  0.4000000000E+00  0.1049550792E+01 -0.1620308106E-16 -0.3501260119E+01  0.8075194836E+16  0.2121849210E+01 -0.2335834026E-16  0.3959459307E+00
  0.6570463033E+00  0.1000000000E+01  0.4000000000E+00  0.2310050802E+01 -0.1704173580E-16 -0.2999039732E+01  0.8075194836E+16  0.2690824902E+01  0.1092553083E-16  0.2149462525E+01
  0.5429536967E+00  0.1000000000E+01  0.4000000000E+00 -0.9048342749E+00 -0.4975456713E-16 -0.3280304702E+01  0.8075194836E+16  0.9126657580E+00  0.5467218661E-16  0.3169577145E+01
  0.4469889352E+00  0.1000000000E+01  0.4000000000E+00 -0.4678174096E+01 -0.1336925662E-15 -0.1977275593E+01  0.8075194836E+16 -0.1042652346E+01 -0.7394467366E-16  0.1623733765E+01
  0.4000000000E+00  0.1000000000E+01  0.4000000000E+00 -0.2800901871E+01 -0.5194160204E-18 -0.1319921255E+01  0.8075194836E+16 -0.5055714690E+00 -0.6273607146E-18  0.8387042176E+00
ZONE I=6, J=6, K=1, F=POINT
  0.1200000000E+01  0.1000000000E+01  0.0000000000E+00 -0.8294678264E+00 -0.1253787921E-18  0.4570097702E-01  0.8075194836E+16 -0.2041501805E+00 -0.1709964094E-18  0.4990020681E-01
  0.1153011065E+01  0.1000000000E+01  0.0000000000E+00 -0.7854191169E+00 -0.3653887155E-16 -0.5018267849E-02  0.8075194836E+16 -0.1440603196E+00 -0.8456492956E-17 -0.1075961871E-02
  0.1057046303E+01  0.1000000000E+01  0.0000000000E+00 -0.7383209834E+00 -0.1911879046E-16  0.1593479421E-01  0.8075194836E+16 -0.7632265988E-01 -0.1944671759E-17  0.1775563750E-01
  0.9429536967E+00  0.1000000000E+01  0.0000000000E+00 -0.6785408572E+00 -0.4999047259E-18  0.3382484931E-02  0.8075194836E+16 -0.9583339556E-02 -0.5460264577E-18  0.3432105434E-02
  0.8469889352E+00  0.1000000000E+01  0.0000000000E+00 -0.6107132652E+00 -0.7139589976E-19  0.2420766623E-01  0.8075194836E+16  0.5007779167E-01 -0.1211544603E-18  0.2077940342E-01
  0.8000000000E+00  0.1000000000E+01  0.0000000000E+00 -0.6125821938E+00 -0.4654758782E-18  0.3945853592E-02  0.8075194836E+16  0.3907297583E-01 -0.4300146264E-18 -0.2972771590E-03
  0.1200000000E+01  0.1000000000E+01  0.4698893521E-01  0.5211849127E+00  0.4347573661E-16 -0.1922310903E+01  0.8075194836E+16  0.7677436477E+00  0.3071394455E-16 -0.1200604528E+01
  0.1153011065E+01  0.1000000000E+01  0.4698893521E-01 -0.1872652223E+00  0.3661435913E-16 -0.1716001443E+01  0.8075194836E+16  0.6909340640E-01  0.2673752567E-16 -0.8377597277E+00
  0.1057046303E+01  0.1000000000E+01  0.4698893521E-01 -0.3206160614E+00 -0.3886404470E-16 -0.1670976484E+01  0.8075194836E+16  0.8721059684E-01 -0.3183869466E-16 -0.3884170026E+00
  0.9429536967E+00  0.1000000000E+01  0.4698893521E-01 -0.9235248006E+00  0.3610261056E-16 -0.1569747946E+01  0.8075194836E+16 -0.3484248408E+00  0.2106552325E-16  0.5777579235E-01
  0.8469889352E+00  0.1000000000E+01  0.4698893521E-01 -0.9917500742E+00  0.5727756492E-16 -0.1430757939E+01  0.8075194836E+16 -0.3174952237E+00  0.2545708060E-16  0.4538061404E+00
  0.8000000000E+00  0.1000000000E+01  0.4698893521E-01 -0.1337677086E+01 -0.1410048569E-17 -0.1291936571E+01  0.8075194836E+16 -0.5804632567E+00 -0.9456205003E-17  0.6726967095E+00
  0.1200000000E+01  0.1000000000E+01  0.1429536967E+00  0.3936890501E+01 -0.9523193368E-17 -0.2981278906E+01  0.8075194836E+16  0.3907768463E+01 -0.9279288096E-17 -0.2211645659E+01
  0.1153011065E+01  0.1000000000E+01  0.1429536967E+00  0.2458555468E+01 -0.1722138987E-15 -0.3181327521E+01  0.8075194836E+16  0.2273629735E+01 -0.1872651099E-15 -0.2243055864E+01
  0.1057046303E+01  0.1000000000E+01  0.1429536967E+00  0.2101983267E+01 -0.3808547355E-16 -0.2945268935E+01  0.8075194836E+16  0.2061636895E+01 -0.3745935901E-16 -0.1584114004E+01
  0.9429536967E+00  0.1000000000E+01  0.1429536967E+00  0.7109292959E+00 -0.3620022274E-16 -0.3023478438E+01  0.8075194836E+16  0.9660126132E+00 -0.3486746019E-16 -0.1195213986E+01
  0.8469889352E+00  0.1000000000E+01  0.1429536967E+00  0.3236526432E+00  0.5245084909E-17 -0.2497803435E+01  0.8075194836E+16  0.7723728002E+00 -0.1538760855E-16 -0.4493602915E+00
  0.8000000000E+00  0.1000000000E+01  0.1429536967E+00 -0.2987856869E+00 -0.1100157647E-15 -0.2390595631E+01  0.8075194836E+16  0.3280195267E+00 -0.9107712021E-16 -0.2745169248E+00
  0.1200000000E+01  0.1000000000E+01  0.2570463033E+00  0.4823936183E+01 -0.4084674514E-16 -0.3864648823E+01  0.8075194836E+16  0.4426093217E+01 -0.3942825885E-16 -0.3064225276E+01
  0.1153011065E+01  0.1000000000E+01  0.2570463033E+00  0.4197464786E+01  0.1400191840E-15 -0.4192223822E+01  0.8075194836E+16  0.3632132163E+01  0.2117122816E-15 -0.3230779367E+01
  0.1057046303E+01  0.1000000000E+01  0.2570463033E+00  0.3306908645E+01 -0.4405650656E-16 -0.3848011715E+01  0.8075194836E+16  0.2812745966E+01 -0.4459309744E-16 -0.2538090441E+01
  0.9429536967E+00  0.1000000000E+01  0.2570463033E+00  0.2164702010E+01  0.7742168196E-16 -0.3820642185E+01  0.8075194836E+16  0.2087983460E+01  0.8030481685E-16 -0.2118194122E+01
  0.8469889352E+00  0.1000000000E+01  0.2570463033E+00  0.1362091708E+01 -0.1112291877E-15 -0.3349500362E+01  0.8075194836E+16  0.1714003541E+01 -0.7402425044E-16 -0.1432799504E+01
  0.8000000000E+00  0.1000000000E+01  0.2570463033E+00  0.9222080888E+00 -0.1740965077E-16 -0.3257021655E+01  0.8075194836E+16  0.1511699650E+01 -0.1705010575E-16 -0.1333222258E+01
  0.1200000000E+01  0.1000000000E+01  0.3530110648E+00  0.5604396348E+01 -0.1017529463E-16 -0.5200851713E+01  0.8075194836E+16  0.4881086626E+01 -0.8946924672E-17 -0.4043802708E+01
  0.1153011065E+01  0.1000000000E+01  0.3530110648E+00  0.4796891652E+01  0.1401382599E-17 -0.5214152174E+01  0.8075194836E+16  0.3801070330E+01  0.1509500574E-16 -0.3846043192E+01
  0.1057046303E+01  0.1000000000E+01  0.3530110648E+00  0.3721273243E+01 -0.3078382423E-17 -0.4898428834E+01  0.8075194836E+16  0.2832781302E+01 -0.2865675534E-16 -0.3045988745E+01
  0.9429536967E+00  0.1000000000E+01  0.3530110648E+00  0.2807838733E+01  0.5336480564E-16 -0.4574483554E+01  0.8075194836E+16  0.2325980000E+01  0.4805628327E-16 -0.2135651357E+01
  0.8469889352E+00  0.1000000000E+01  0.3530110648E+00  0.2233769305E+01 -0.4390871385E-16 -0.4163943680E+01  0.8075194836E+16  0.2291392768E+01 -0.6875335349E-16 -0.1121840681E+01
  0.8000000000E+00  0.1000000000E+01  0.3530110648E+00  0.1289533286E+01  0.3639058303E-17 -0.4020264557E+01  0.8075194836E+16  0.1905610902E+01  0.1717418430E-17 -0.7669180300E+00
  0.1200000000E+01  0.1000000000E+01  0.4000000000E+00  0.5478393418E+01 -0.1174631952E-16 -0.5352485531E+01  0.8075194836E+16  0.4590537669E+01 -0.1055254944E-16 -0.4379869519E+01
  0.1153011065E+01  0.1000000000E+01  0.4000000000E+00  0.4997720275E+01 -0.3190419979E-16 -0.5488469630E+01  0.8075194836E+16  0.3795509938E+01 -0.6628105010E-16 -0.4372191637E+01
  0.1057046303E+01  0.1000000000E+01  0.4000000000E+00  0.3748017702E+01 -0.6003716182E-16 -0.5195127090E+01  0.8075194836E+16  0.2614932051E+01 -0.7483473328E-16 -0.3670797810E+01
  0.9429536967E+00  0.1000000000E+01  0.4000000000E+00  0.2952247072E+01 -0.4061025280E-17 -0.4927646647E+01  0.8075194836E+16  0.2144330286E+01  0.2422586243E-16 -0.2613708376E+01
  0.8469889352E+00  0.1000000000E+01  0.4000000000E+00  0.2316147683E+01 -0.3542845272E-16 -0.4143686000E+01  0.8075194836E+16  0.2012324009E+01 -0.4472907965E-16 -0.9967041505E+00
  0.8000000000E+00  0.1000000000E+01  0.4000000000E+00  0.1525820345E+01 -0.1213723935E-16 -0.3840451642E+01  0.8075194836E+16  0.1851301174E+01 -0.1157463783E-16 -0.2076910867E+00
ZONE I=6, J=6, K=1, F=POINT
  0.1600000000E+01  0.1000000000E+01  0.0000000000E+00 -0.8154026486E+00 -0.1243666959E-17 -0.3861938527E-01  0.8075194836E+16 -0.3683536534E+00 -0.1977503195E-17 -0.3862896628E-01
  0.1553011065E+01  0.1000000000E+01  0.0000000000E+00 -0.9229667930E+00  0.4371419245E-16  0.5102973746E-01  0.8075194836E+16 -0.4620866779E+00  0.2236509067E-16  0.5364187988E-01
  0.1457046303E+01  0.1000000000E+01  0.0000000000E+00 -0.8949501306E+00  0.2056190056E-16 -0.1078156148E-02  0.8075194836E+16 -0.3891881127E+00  0.8264238552E-17  0.6894897699E-02
  0.1342953697E+01  0.1000000000E+01  0.0000000000E+00 -0.8378195001E+00 -0.4643360490E-16  0.3198166073E-01  0.8075194836E+16 -0.2775399735E+00 -0.1553871989E-16  0.3826154051E-01
  0.1246988935E+01  0.1000000000E+01  0.0000000000E+00 -0.8200226798E+00 -0.3229755064E-17 -0.5020163006E-02  0.8075194836E+16 -0.2187970702E+00  0.7072927794E-18  0.1293444269E-02
  0.1200000000E+01  0.1000000000E+01  0.0000000000E+00 -0.7368678167E+00 -0.3324609487E-18  0.4569117529E-01  0.8075194836E+16 -0.1129832942E+00 -0.2803939251E-18  0.4996554663E-01
  0.1600000000E+01  0.1000000000E+01  0.4698893521E-01  0.1116174103E+01 -0.4839925022E-16 -0.1844426776E+01  0.8075194836E+16  0.7065083670E+00 -0.3948580525E-16  0.5387702590E-02
  0.1553011065E+01  0.1000000000E+01  0.4698893521E-01  0.1777478723E+01 -0.9839177933E-16 -0.2321146730E+01  0.8075194836E+16  0.1542241451E+01 -0.1064656983E-15 -0.6832146188E+00
  0.1457046303E+01  0.1000000000E+01  0.4698893521E-01  0.8194141401E+00  0.4203991687E-16 -0.2164964424E+01  0.8075194836E+16  0.7099621895E+00  0.4637285402E-16 -0.1060207763E+01
  0.1342953697E+01  0.1000000000E+01  0.4698893521E-01  0.8274402672E+00  0.6258481549E-17 -0.1902664885E+01  0.8075194836E+16  0.8878956763E+00  0.7194105606E-17 -0.1006965417E+01
  0.1246988935E+01  0.1000000000E+01  0.4698893521E-01  0.2877782633E+00 -0.9141694937E-16 -0.1764778462E+01  0.8075194836E+16  0.5357579472E+00 -0.8020904808E-16 -0.1033163413E+01
  0.1200000000E+01  0.1000000000E+01  0.4698893521E-01  0.6159710791E+00  0.4000506933E-16 -0.1928690057E+01  0.8075194836E+16  0.8616870762E+00  0.2727551189E-16 -0.1205607117E+01
  0.1600000000E+01  0.1000000000E+01  0.1429536967E+00  0.4506950488E+01 -0.3991416609E-15 -0.4515829405E+01  0.8075194836E+16  0.3970460656E+01 -0.4227145156E-15 -0.3964068548E+01
  0.1553011065E+01  0.1000000000E+01  0.1429536967E+00  0.6592007624E+01 -0.8112316105E-16 -0.3627020372E+01  0.8075194836E+16  0.6687311859E+01 -0.9048711099E-16 -0.2977682195E+01
  0.1457046303E+01  0.1000000000E+01  0.1429536967E+00  0.4545519115E+01 -0.1132652126E-15 -0.3448049941E+01  0.8075194836E+16  0.4676751223E+01 -0.1041637484E-15 -0.2792307173E+01
  0.1342953697E+01  0.1000000000E+01  0.1429536967E+00  0.4574570358E+01 -0.1399701963E-17 -0.2583568818E+01  0.8075194836E+16  0.4705201966E+01  0.3990583610E-17 -0.1952292390E+01
  0.1246988935E+01  0.1000000000E+01  0.1429536967E+00  0.3506863365E+01  0.1690871486E-15 -0.3112511051E+01  0.8075194836E+16  0.3798057136E+01  0.1421764511E-15 -0.2441409216E+01
  0.1200000000E+01  0.1000000000E+01  0.1429536967E+00  0.4103961945E+01 -0.1497915284E-16 -0.2978672747E+01  0.8075194836E+16  0.4060207573E+01 -0.1506155464E-16 -0.2207829284E+01
  0.1600000000E+01  0.1000000000E+01  0.2570463033E+00  0.1005195803E+02  0.6537583247E-16 -0.5586662524E+01  0.8075194836E+16  0.8999751556E+01  0.6179796949E-16 -0.6043560818E+01
  0.1553011065E+01  0.1000000000E+01  0.2570463033E+00  0.9023753664E+01  0.5621513374E-16 -0.4405624958E+01  0.8075194836E+16  0.8593378439E+01  0.5230156850E-16 -0.4614887582E+01
  0.1457046303E+01  0.1000000000E+01  0.2570463033E+00  0.7631501778E+01  0.2319244577E-16 -0.4090678493E+01  0.8075194836E+16  0.7550610696E+01  0.1843814815E-16 -0.3885706447E+01
  0.1342953697E+01  0.1000000000E+01  0.2570463033E+00  0.6259771011E+01 -0.2707621223E-16 -0.3150439924E+01  0.8075194836E+16  0.6291872184E+01 -0.2531877526E-16 -0.2752657980E+01
  0.1246988935E+01  0.1000000000E+01  0.2570463033E+00  0.5331588609E+01 -0.1203478272E-15 -0.4036279086E+01  0.8075194836E+16  0.5306782786E+01 -0.1120251859E-15 -0.3397277741E+01
  0.1200000000E+01  0.1000000000E+01  0.2570463033E+00  0.4864588102E+01 -0.3950255009E-16 -0.3855129369E+01  0.8075194836E+16  0.4463638732E+01 -0.3670824545E-16 -0.3057565618E+01
  0.1600000000E+01  0.1000000000E+01  0.3530110648E+00  0.8756198799E+01  0.1703602025E-15 -0.5701193929E+01  0.8075194836E+16  0.7439725219E+01  0.1729644300E-15 -0.5239432521E+01
  0.1553011065E+01  0.1000000000E+01  0.3530110648E+00  0.8888520276E+01  0.1502728251E-15 -0.5498256083E+01  0.8075194836E+16  0.8186162477E+01  0.1457940671E-15 -0.5010637077E+01
  0.1457046303E+01  0.1000000000E+01  0.3530110648E+00  0.7855348987E+01  0.4057193735E-16 -0.5185511281E+01  0.8075194836E+16  0.7590107841E+01  0.1718755461E-16 -0.4640107706E+01
  0.1342953697E+01  0.1000000000E+01  0.3530110648E+00  0.6925447400E+01  0.4680307745E-16 -0.4809762674E+01  0.8075194836E+16  0.6775219652E+01  0.3521649080E-16 -0.4045227990E+01
  0.1246988935E+01  0.1000000000E+01  0.3530110648E+00  0.5775760163E+01  0.1015921254E-15 -0.5194620269E+01  0.8075194836E+16  0.5458616189E+01  0.1010080856E-15 -0.4180271354E+01
  0.1200000000E+01  0.1000000000E+01  0.3530110648E+00  0.5690006322E+01 -0.1049339271E-16 -0.5201754079E+01  0.8075194836E+16  0.4966772861E+01 -0.8948603818E-17 -0.4044128128E+01
  0.1600000000E+01  0.1000000000E+01  0.4000000000E+00  0.8901441549E+01  0.1585474007E-15 -0.5775449160E+01  0.8075194836E+16  0.7538029301E+01  0.1606264184E-15 -0.6108030905E+01
  0.1553011065E+01  0.1000000000E+01  0.4000000000E+00  0.8327289943E+01  0.1981252257E-15 -0.4954943302E+01  0.8075194836E+16  0.7592749389E+01  0.2274450312E-15 -0.5188422713E+01
  0.1457046303E+01  0.1000000000E+01  0.4000000000E+00  0.7999024217E+01  0.1336208230E-15 -0.5289731948E+01  0.8075194836E+16  0.7653871748E+01  0.1416177067E-15 -0.5287367812E+01
  0.1342953697E+01  0.1000000000E+01  0.4000000000E+00  0.6870257008E+01 -0.5449370721E-16 -0.4975587504E+01  0.8075194836E+16  0.6576328420E+01 -0.5923164362E-16 -0.4589424829E+01
  0.1246988935E+01  0.1000000000E+01  0.4000000000E+00  0.5994558121E+01  0.4454322088E-16 -0.5572840321E+01  0.8075194836E+16  0.5522105326E+01  0.3361083485E-16 -0.4776105815E+01
  0.1200000000E+01  0.1000000000E+01  0.4000000000E+00  0.5447623137E+01 -0.1227359852E-16 -0.5339974848E+01  0.8075194836E+16  0.4567118842E+01 -0.1121044421E-16 -0.4370309598E+01
ZONE I=6, J=6, K=1, F=POINT
  0.2000000000E+01  0.1000000000E+01  0.0000000000E+00  0.2303163788E+01 -0.1683115788E-18  0.2116229750E+02  0.8075194836E+16  0.2320537113E+01 -0.1161473775E-18  0.2205022824E+02
  0.1953011065E+01  0.1000000000E+01  0.0000000000E+00  0.3194990289E+00 -0.1546152705E-16 -0.2382052404E+00  0.8075194836E+16  0.5301021268E+00 -0.2021570768E-16 -0.2747243385E+00
  0.1857046303E+01  0.1000000000E+01  0.0000000000E+00 -0.1477923210E+01 -0.8535303328E-16  0.1770746524E+00  0.8075194836E+16 -0.1153378663E+01 -0.6602967959E-16  0.1970325581E+00
  0.1742953697E+01  0.1000000000E+01  0.0000000000E+00 -0.9080108137E+00 -0.2840497958E-17 -0.4574312652E-01  0.8075194836E+16 -0.5216328523E+00 -0.2394813981E-17 -0.3838301076E-01
  0.1646988935E+01  0.1000000000E+01  0.0000000000E+00 -0.1263915001E+01  0.3606485371E-17  0.7330208422E-01  0.8075194836E+16 -0.7776475092E+00  0.1418160632E-17  0.7826346332E-01
  0.1600000000E+01  0.1000000000E+01  0.0000000000E+00 -0.8354256111E+00 -0.1161801028E-17 -0.4989931156E-01  0.8075194836E+16 -0.3921237410E+00 -0.1910477168E-17 -0.4886086944E-01
  0.2000000000E+01  0.1000000000E+01  0.4698893521E-01 -0.1242823608E+00  0.7525292087E-18  0.4748234236E+02  0.8075194836E+16 -0.1901630931E+00  0.1512335607E-18  0.4788794698E+02
  0.1953011065E+01  0.1000000000E+01  0.4698893521E-01  0.9629698090E+01  0.1221334255E-15 -0.3809835572E-01  0.8075194836E+16  0.8171327731E+01  0.1064532406E-15 -0.1240039097E+01
  0.1857046303E+01  0.1000000000E+01  0.4698893521E-01  0.9910607879E+01  0.1694350547E-15 -0.3759375440E+01  0.8075194836E+16  0.8383017868E+01  0.6313427311E-16 -0.4351527140E+01
  0.1742953697E+01  0.1000000000E+01  0.4698893521E-01  0.3902370368E+01 -0.5683847410E-16 -0.3031080242E+01  0.8075194836E+16  0.2750551639E+01 -0.5241088873E-16 -0.2505353817E+01
  0.1646988935E+01  0.1000000000E+01  0.4698893521E-01  0.2234844993E+01 -0.1409808944E-16 -0.2893419549E+01  0.8075194836E+16  0.1199882379E+01  0.3797875583E-16 -0.1266605083E+01
  0.1600000000E+01  0.1000000000E+01  0.4698893521E-01  0.9597509791E+00 -0.4624409526E-16 -0.1856241390E+01  0.8075194836E+16  0.5704795242E+00 -0.3787404645E-16 -0.1446045933E-01
  0.2000000000E+01  0.1000000000E+01  0.1429536967E+00 -0.2677222253E+00  0.3437611526E-17  0.4924723597E+02  0.8075194836E+16 -0.2209766373E+00  0.6402974258E-17  0.4957612929E+02
  0.1953011065E+01  0.1000000000E+01  0.1429536967E+00  0.1445047569E+01 -0.6394324138E-15  0.1440761342E+02  0.8075194836E+16 -0.7023503163E-01 -0.7753776248E-15  0.1310049769E+02
  0.1857046303E+01  0.1000000000E+01  0.1429536967E+00  0.1153673556E+02 -0.2018057278E-15 -0.5731225287E+01  0.8075194836E+16  0.9236249756E+01 -0.6572131597E-16 -0.6950618973E+01
  0.1742953697E+01  0.1000000000E+01  0.1429536967E+00  0.8585811254E+01 -0.1952227572E-15 -0.6671238157E+01  0.8075194836E+16  0.6269221107E+01 -0.4205916141E-15 -0.6959375761E+01
  0.1646988935E+01  0.1000000000E+01  0.1429536967E+00  0.6950151828E+01 -0.1928181609E-15 -0.4805466479E+01  0.8075194836E+16  0.5174315174E+01 -0.2050502720E-15 -0.4432844283E+01
  0.1600000000E+01  0.1000000000E+01  0.1429536967E+00  0.4131336855E+01 -0.4161311485E-15 -0.4511215433E+01  0.8075194836E+16  0.3639553027E+01 -0.4420208840E-15 -0.3968424488E+01
  0.2000000000E+01  0.1000000000E+01  0.2570463033E+00  0.2575719382E-02  0.6688005774E-18  0.4871022458E+02  0.8075194836E+16  0.1549159900E-01  0.5547475709E-18  0.4920755207E+02