TITLE = "Generated from ../MESH/Convergence_0000000000.hmesh and Convergence_0000001400.hsol"
VARIABLES = "x","y","z","veloT_x","veloT_y","veloT_z","slr_4","velo_x","velo_y","velo_z"
ZONE I=6, J=6, K=1, F=POINT
  0.4000000000E+00  0.1000000000E+01  0.0000000000E+00 -0.1229371456E-01  0.2944048477E-19  0.6874304413E-02  0.6019740434E+15 -0.1162919846E-01  0.2949740647E-19  0.6316216608E-02
  0.3530110648E+00  0.1000000000E+01  0.0000000000E+00 -0.1959535021E-02  0.8183858621E-20 -0.5243137257E-03  0.6019740434E+15 -0.1389268729E-02  0.8563866592E-20 -0.6079361798E-03
  0.2570463033E+00  0.1000000000E+01  0.0000000000E+00 -0.5537751718E-03  0.1179001706E-20  0.2167004356E-02  0.6019740434E+15 -0.3599623296E-04  0.1369925551E-20  0.2224058876E-02
  0.1429536967E+00  0.1000000000E+01  0.0000000000E+00 -0.1465764219E-02  0.1663909219E-21 -0.1148928527E-02  0.6019740434E+15 -0.5192794367E-03  0.2775543229E-21 -0.1137987283E-02
  0.4698893521E-01  0.1000000000E+01  0.0000000000E+00  0.1267252926E-02 -0.2173796730E-20  0.2001183423E-02  0.6019740434E+15  0.2197870490E-02 -0.2120785752E-20  0.1888234380E-02
  0.0000000000E+00  0.1000000000E+01  0.0000000000E+00 -0.7635673685E-02  0.9332115802E-23  0.2166663861E-02  0.6019740434E+15 -0.7474999987E-02  0.9276263913E-23  0.2078222509E-02
  0.4000000000E+00  0.1000000000E+01  0.4698893521E-01  0.2485907816E+00  0.2541816971E-17 -0.3382157560E-01  0.6019740434E+15  0.2483449301E+00  0.2543882795E-17 -0.4460055077E-01
  0.3530110648E+00  0.1000000000E+01  0.4698893521E-01  0.1087118633E+00  0.2172273257E-17  0.3520285488E-02  0.6019740434E+15  0.1083776673E+00  0.2189091002E-17 -0.7130356876E-02
  0.2570463033E+00  0.1000000000E+01  0.4698893521E-01  0.8741748270E-01  0.6358626951E-18 -0.7602171845E-02  0.6019740434E+15  0.8670643591E-01  0.6227941026E-18 -0.1732496063E-01
  0.1429536967E+00  0.1000000000E+01  0.4698893521E-01  0.1337627408E-02  0.4495410464E-19 -0.4789837451E-02  0.6019740434E+15  0.1463476684E-02  0.4228461510E-19 -0.9725479937E-02
  0.4698893521E-01  0.1000000000E+01  0.4698893521E-01 -0.3354741410E-02 -0.1150634024E-19 -0.6393751407E-02  0.6019740434E+15 -0.2182728278E-02 -0.9104419491E-20 -0.8479755882E-02
  0.0000000000E+00  0.1000000000E+01  0.4698893521E-01 -0.1833851307E-01  0.8784764442E-21  0.2936915944E-02  0.6019740434E+15 -0.1820699262E-01  0.9208890125E-21  0.1879633813E-02
  0.4000000000E+00  0.1000000000E+01  0.1429536967E+00  0.5113299992E+00  0.8442617238E-17 -0.8374439578E-01  0.6019740434E+15  0.5100763795E+00  0.8422984577E-17 -0.1011887079E+00
  0.3530110648E+00  0.1000000000E+01  0.1429536967E+00  0.2638734948E+00  0.4404898643E-17 -0.1194801007E+00  0.6019740434E+15  0.2628059618E+00  0.4520743005E-17 -0.1364315103E+00
  0.2570463033E+00  0.1000000000E+01  0.1429536967E+00  0.1950903515E+00  0.1176480253E-17 -0.6231268843E-01  0.6019740434E+15  0.1901992269E+00  0.1167199794E-17 -0.7576688603E-01
  0.1429536967E+00  0.1000000000E+01  0.1429536967E+00  0.2691118631E-01  0.1777167577E-18 -0.8992018183E-01  0.6019740434E+15  0.2170783109E-01  0.1738202516E-18 -0.9689411204E-01
  0.4698893521E-01  0.1000000000E+01  0.1429536967E+00 -0.7687334710E-02 -0.2427600244E-19 -0.4828181655E-02  0.6019740434E+15 -0.8659232127E-02 -0.1246195470E-19 -0.7216392131E-02
  0.0000000000E+00  0.1000000000E+01  0.1429536967E+00 -0.2136019725E-01 -0.2410788203E-21 -0.4457349964E-03  0.6019740434E+15 -0.2138244788E-01 -0.1011613683E-21 -0.1562800479E-02
  0.4000000000E+00  0.1000000000E+01  0.2570463033E+00  0.5108148533E+00  0.7884353767E-18 -0.2813500429E+00  0.6019740434E+15  0.5095613802E+00  0.7943092528E-18 -0.2916694196E+00
  0.3530110648E+00  0.1000000000E+01  0.2570463033E+00  0.3735488952E+00  0.2310694181E-18 -0.3248331921E+00  0.6019740434E+15  0.3713641131E+00  0.7925784903E-19 -0.3354153076E+00
  0.2570463033E+00  0.1000000000E+01  0.2570463033E+00  0.2528188439E+00 -0.1434849315E-18 -0.2056546786E+00  0.6019740434E+15  0.2441427896E+00 -0.1397512715E-18 -0.2173064307E+00
  0.1429536967E+00  0.1000000000E+01  0.2570463033E+00  0.8241544464E-01  0.2480365114E-18 -0.2252739387E+00  0.6019740434E+15  0.7063751874E-01  0.2511125268E-18 -0.2326270114E+00
  0.4698893521E-01  0.1000000000E+01  0.2570463033E+00  0.1204946116E-01  0.5780867457E-18 -0.3615046311E-01  0.6019740434E+15  0.6903435226E-02  0.5544643600E-18 -0.3800639114E-01
  0.0000000000E+00  0.1000000000E+01  0.2570463033E+00 -0.1434160983E-01 -0.3179042788E-20 -0.1959701301E-03  0.6019740434E+15 -0.1431921794E-01 -0.3194758614E-20 -0.1104423182E-02
  0.4000000000E+00  0.1000000000E+01  0.3530110648E+00  0.4986623808E+00 -0.3415368901E-19 -0.4485146459E+00  0.6019740434E+15  0.4964100698E+00 -0.3169556137E-19 -0.4522987824E+00
  0.3530110648E+00  0.1000000000E+01  0.3530110648E+00  0.3708714574E+00 -0.2932876288E-18 -0.4689624570E+00  0.6019740434E+15  0.3725437195E+00 -0.2939996881E-18 -0.4737944410E+00
  0.2570463033E+00  0.1000000000E+01  0.3530110648E+00  0.2667135402E+00 -0.1186241066E-17 -0.3494430421E+00  0.6019740434E+15  0.2591368567E+00 -0.1057041898E-17 -0.3583838974E+00
  0.1429536967E+00  0.1000000000E+01  0.3530110648E+00  0.9659669160E-01  0.1529853879E-18 -0.3358250029E+00  0.6019740434E+15  0.7901939130E-01  0.2105972642E-18 -0.3426616030E+00
  0.4698893521E-01  0.1000000000E+01  0.3530110648E+00  0.1886747540E-01 -0.3248282532E-19 -0.9128661336E-01  0.6019740434E+15  0.9876954330E-02 -0.1772083887E-19 -0.9295146858E-01
  0.0000000000E+00  0.1000000000E+01  0.3530110648E+00 -0.1431944746E-01  0.5266744164E-20 -0.3329758583E-03  0.6019740434E+15 -0.1428940634E-01  0.5162126362E-20 -0.1336437004E-02
  0.4000000000E+00  0.1000000000E+01  0.4000000000E+00  0.4666792262E+00  0.1473905221E-17 -0.5105449778E+00  0.6019740434E+15  0.4624374738E+00  0.1480550124E-17 -0.5161197072E+00
  0.3530110648E+00  0.1000000000E+01  0.4000000000E+00  0.3939973627E+00  0.7918024634E-18 -0.5312562172E+00  0.6019740434E+15  0.3963600828E+00  0.7899541529E-18 -0.5356048784E+00
  0.2570463033E+00  0.1000000000E+01  0.4000000000E+00  0.2715593358E+00 -0.1422204040E-17 -0.4150571719E+00  0.6019740434E+15  0.2646542156E+00 -0.1434150174E-17 -0.4188506017E+00
  0.1429536967E+00  0.1000000000E+01  0.4000000000E+00  0.1105765940E+00 -0.1327651996E-19 -0.3944518439E+00  0.6019740434E+15  0.9133718967E-01 -0.5485881599E-19 -0.3978178566E+00
  0.4698893521E-01  0.1000000000E+01  0.4000000000E+00  0.1687803788E-01 -0.2058195610E-18 -0.1189787545E+00  0.6019740434E+15  0.6289347334E-02 -0.2012116945E-18 -0.1203467219E+00
  0.0000000000E+00  0.1000000000E+01  0.4000000000E+00 -0.6698613049E-02  0.8093130166E-20 -0.2145985906E-02  0.6019740434E+15 -0.6459351471E-02  0.7840454768E-20 -0.2771113596E-02
ZONE I=6, J=6, K=1, F=POINT
  0.8000000000E+00  0.1000000000E+01  0.0000000000E+00  0.1698860656E-01 -0.7231772164E-19 -0.1142417846E-01  0.6019740434E+15  0.1726584486E-01 -0.7471933499E-19 -0.1116872291E-01
  0.7530110648E+00  0.1000000000E+01  0.0000000000E+00  0.1485646202E-02  0.8388543841E-19  0.5788975614E-02  0.6019740434E+15  0.1753374063E-02  0.8996016618E-19  0.5819275804E-02
  0.6570463033E+00  0.1000000000E+01  0.0000000000E+00 -0.8415431350E-03  0.1358865970E-19  0.8145303860E-04  0.6019740434E+15 -0.6089588446E-03  0.1846428409E-19  0.1150923551E-03
  0.5429536967E+00  0.1000000000E+01  0.0000000000E+00  0.4590213809E-03  0.1490917359E-19  0.6705273147E-02  0.6019740434E+15  0.9990734479E-03  0.3121468164E-19  0.6797273813E-02
  0.4469889352E+00  0.1000000000E+01  0.0000000000E+00 -0.2232106433E-02 -0.4778384296E-19  0.3572930791E-03  0.6019740434E+15 -0.1442297796E-02 -0.2268078106E-19  0.2575876827E-03
  0.4000000000E+00  0.1000000000E+01  0.0000000000E+00  0.1441948991E-01  0.3315821150E-19  0.6568784510E-02  0.6019740434E+15  0.1503483793E-01  0.3318939438E-19  0.6024041247E-02
  0.8000000000E+00  0.1000000000E+01  0.4698893521E-01  0.3242345147E+00 -0.2660106199E-16  0.2678572075E-01  0.6019740434E+15  0.3245570779E+00 -0.2659823396E-16  0.9364586976E-02
  0.7530110648E+00  0.1000000000E+01  0.4698893521E-01  0.5245002011E+00 -0.2637294113E-16 -0.3331454167E-01  0.6019740434E+15  0.5246180955E+00 -0.2635952981E-16 -0.5125919953E-01
  0.6570463033E+00  0.1000000000E+01  0.4698893521E-01  0.3062157717E+00 -0.5759853850E-17 -0.3650093967E-02  0.6019740434E+15  0.3057517753E+00 -0.5790021355E-17 -0.2043582661E-01
  0.5429536967E+00  0.1000000000E+01  0.4698893521E-01  0.3260555895E+00  0.4411562740E-17  0.4323368680E-02  0.6019740434E+15  0.3262692724E+00  0.4406097085E-17 -0.9881006250E-02
  0.4469889352E+00  0.1000000000E+01  0.4698893521E-01  0.1881728347E+00  0.3625331932E-17  0.1060774019E-01  0.6019740434E+15  0.1892427641E+00  0.3628686763E-17 -0.1301393499E-02
  0.4000000000E+00  0.1000000000E+01  0.4698893521E-01  0.2910701044E+00  0.2298308877E-17 -0.3458407139E-01  0.6019740434E+15  0.2912473313E+00  0.2298036126E-17 -0.4535698766E-01
  0.8000000000E+00  0.1000000000E+01  0.1429536967E+00  0.8096192967E+00 -0.5580547088E-16 -0.2692103813E+00  0.6019740434E+15  0.8107202358E+00 -0.5575740369E-16 -0.3018704822E+00
  0.7530110648E+00  0.1000000000E+01  0.1429536967E+00  0.1144118035E+01 -0.3693275011E-16 -0.1408435085E+00  0.6019740434E+15  0.1142118922E+01 -0.3671185362E-16 -0.1722708054E+00
  0.6570463033E+00  0.1000000000E+01  0.1429536967E+00  0.7546138687E+00 -0.7428460363E-17 -0.1601408672E+00  0.6019740434E+15  0.7505026568E+00 -0.7274414182E-17 -0.1859917067E+00
  0.5429536967E+00  0.1000000000E+01  0.1429536967E+00  0.7161632518E+00  0.8893504302E-17 -0.3096962045E-01  0.6019740434E+15  0.7135183408E+00  0.8802826383E-17 -0.5156605976E-01
  0.4469889352E+00  0.1000000000E+01  0.1429536967E+00  0.4326165934E+00  0.8292311013E-17 -0.1091485582E+00  0.6019740434E+15  0.4310662764E+00  0.8393164976E-17 -0.1272208874E+00
  0.4000000000E+00  0.1000000000E+01  0.1429536967E+00  0.5624559394E+00  0.9157314537E-17 -0.8320412911E-01  0.6019740434E+15  0.5611390763E+00  0.9137694976E-17 -0.1006601655E+00
  0.8000000000E+00  0.1000000000E+01  0.2570463033E+00  0.1320900547E+01 -0.1323137443E-16 -0.6608465300E+00  0.6019740434E+15  0.1322474996E+01 -0.1323922195E-16 -0.6868142804E+00
  0.7530110648E+00  0.1000000000E+01  0.2570463033E+00  0.1290720522E+01 -0.1006008296E-16 -0.4449730551E+00  0.6019740434E+15  0.1283673509E+01 -0.1039217247E-16 -0.4702061925E+00
  0.6570463033E+00  0.1000000000E+01  0.2570463033E+00  0.9773473371E+00 -0.7330233897E-17 -0.4435884185E+00  0.6019740434E+15  0.9653304488E+00 -0.6985430976E-17 -0.4632785801E+00
  0.5429536967E+00  0.1000000000E+01  0.2570463033E+00  0.7777819914E+00 -0.5035238114E-19 -0.2219595433E+00  0.6019740434E+15  0.7707202790E+00 -0.1684685049E-18 -0.2336388876E+00
  0.4469889352E+00  0.1000000000E+01  0.2570463033E+00  0.5429391002E+00  0.1140733648E-17 -0.3290256992E+00  0.6019740434E+15  0.5412580114E+00  0.1016694006E-17 -0.3385927188E+00
  0.4000000000E+00  0.1000000000E+01  0.2570463033E+00  0.5415828992E+00  0.8201662722E-18 -0.2807410766E+00  0.6019740434E+15  0.5414279018E+00  0.8242925634E-18 -0.2910809875E+00
  0.8000000000E+00  0.1000000000E+01  0.3530110648E+00  0.1162668698E+01 -0.9907495761E-18 -0.9376314389E+00  0.6019740434E+15  0.1165479044E+01 -0.1012326155E-17 -0.9534879337E+00
  0.7530110648E+00  0.1000000000E+01  0.3530110648E+00  0.1189870010E+01  0.3358224772E-17 -0.7679424942E+00  0.6019740434E+15  0.1183558235E+01  0.2970110109E-17 -0.7852964577E+00
  0.6570463033E+00  0.1000000000E+01  0.3530110648E+00  0.9099336319E+00 -0.4967950452E-17 -0.6702928449E+00  0.6019740434E+15  0.8924220580E+00 -0.4090827662E-17 -0.6889217494E+00
  0.5429536967E+00  0.1000000000E+01  0.3530110648E+00  0.7352412881E+00 -0.7065316623E-17 -0.4225615057E+00  0.6019740434E+15  0.7221562371E+00 -0.6141683926E-17 -0.4338115625E+00
  0.4469889352E+00  0.1000000000E+01  0.3530110648E+00  0.4970035141E+00 -0.7224589650E-18 -0.4830441105E+00  0.6019740434E+15  0.4944024377E+00 -0.6727774536E-18 -0.4890268147E+00
  0.4000000000E+00  0.1000000000E+01  0.3530110648E+00  0.5320071031E+00 -0.6394830453E-19 -0.4483362263E+00  0.6019740434E+15  0.5301716629E+00 -0.6198638878E-19 -0.4521055562E+00
  0.8000000000E+00  0.1000000000E+01  0.4000000000E+00  0.1123568895E+01 -0.1091524220E-16 -0.1092416048E+01  0.6019740434E+15  0.1126777537E+01 -0.1091280260E-16 -0.1107781546E+01
  0.7530110648E+00  0.1000000000E+01  0.4000000000E+00  0.1034332633E+01 -0.6601327488E-17 -0.8684137990E+00  0.6019740434E+15  0.1030848396E+01 -0.6639726691E-17 -0.8853132596E+00
  0.6570463033E+00  0.1000000000E+01  0.4000000000E+00  0.8297276186E+00 -0.4287095382E-17 -0.7707137907E+00  0.6019740434E+15  0.8119505953E+00 -0.4492444261E-17 -0.7928741360E+00
  0.5429536967E+00  0.1000000000E+01  0.4000000000E+00  0.6683878174E+00  0.1927153671E-17 -0.5420775235E+00  0.6019740434E+15  0.6518495207E+00  0.1270381836E-17 -0.5606649897E+00
  0.4469889352E+00  0.1000000000E+01  0.4000000000E+00  0.5240964560E+00  0.2384203735E-17 -0.5631532878E+00  0.6019740434E+15  0.5185554099E+00  0.2335194220E-17 -0.5733148013E+00
  0.4000000000E+00  0.1000000000E+01  0.4000000000E+00  0.4783657166E+00  0.1491833176E-17 -0.5098129023E+00  0.6019740434E+15  0.4736258349E+00  0.1495763071E-17 -0.5154426273E+00
ZONE I=6, J=6, K=1, F=POINT
  0.1200000000E+01  0.1000000000E+01  0.0000000000E+00 -0.3246519050E-01  0.6717223340E-19  0.3615067535E-01  0.6019740434E+15 -0.3229574049E-01  0.6887849676E-19  0.3684500448E-01
  0.1153011065E+01  0.1000000000E+01  0.0000000000E+00 -0.6107962898E-02 -0.2393284033E-18 -0.9573037106E-02  0.6019740434E+15 -0.5725948455E-02 -0.2220339576E-18 -0.9460301693E-02
  0.1057046303E+01  0.1000000000E+01  0.0000000000E+00  0.1292905946E-02  0.7612969684E-20  0.6114474966E-02  0.6019740434E+15  0.1530387094E-02  0.1284863397E-19  0.6109842318E-02
  0.9429536967E+00  0.1000000000E+01  0.0000000000E+00 -0.2918728936E-02  0.1706831528E-19 -0.8168720362E-02  0.6019740434E+15 -0.2820278225E-02  0.1819644732E-19 -0.8145848846E-02
  0.8469889352E+00  0.1000000000E+01  0.0000000000E+00  0.2610050782E-02 -0.8082902568E-20  0.5331847107E-02  0.6019740434E+15  0.2804755816E-02 -0.8009778596E-20  0.5374554781E-02
  0.8000000000E+00  0.1000000000E+01  0.0000000000E+00 -0.2795440982E-01 -0.8195250394E-19 -0.1088159175E-01  0.6019740434E+15 -0.2777011547E-01 -0.8451387081E-19 -0.1064786266E-01
  0.1200000000E+01  0.1000000000E+01  0.4698893521E-01  0.1921828792E+01 -0.4108379289E-16 -0.2031034999E+00  0.6019740434E+15  0.1922981568E+01 -0.4111198490E-16 -0.1986595880E+00
  0.1153011065E+01  0.1000000000E+01  0.4698893521E-01  0.1277885976E+01 -0.2557499079E-16 -0.5355251516E-01  0.6019740434E+15  0.1278857103E+01 -0.2560899818E-16 -0.5053687588E-01
  0.1057046303E+01  0.1000000000E+01  0.4698893521E-01  0.1220345559E+01 -0.1096425514E-16 -0.8308828731E-01  0.6019740434E+15  0.1221428642E+01 -0.1096055951E-16 -0.8638464863E-01
  0.9429536967E+00  0.1000000000E+01  0.4698893521E-01  0.6968218844E+00 -0.1584993243E-16 -0.6291894165E-01  0.6019740434E+15  0.6976268429E+00 -0.1587879738E-16 -0.7462138473E-01
  0.8469889352E+00  0.1000000000E+01  0.4698893521E-01  0.6409673471E+00 -0.3073233905E-16 -0.6009719631E-01  0.6019740434E+15  0.6408539276E+00 -0.3071426840E-16 -0.7649868656E-01
  0.8000000000E+00  0.1000000000E+01  0.4698893521E-01  0.2631547351E+00 -0.2590598663E-16  0.2884712685E-01  0.6019740434E+15  0.2633752778E+00 -0.2590777756E-16  0.1136492352E-01
  0.1200000000E+01  0.1000000000E+01  0.1429536967E+00  0.4085261289E+01 -0.5675549521E-16 -0.4711957944E+00  0.6019740434E+15  0.4091809671E+01 -0.5682493570E-16 -0.4725701234E+00
  0.1153011065E+01  0.1000000000E+01  0.1429536967E+00  0.2734662769E+01 -0.6683500659E-16 -0.6693013936E+00  0.6019740434E+15  0.2742083223E+01 -0.6645733876E-16 -0.6726494865E+00
  0.1057046303E+01  0.1000000000E+01  0.1429536967E+00  0.2556307127E+01 -0.3854311238E-16 -0.4546956940E+00  0.6019740434E+15  0.2567006949E+01 -0.3858752989E-16 -0.4661223446E+00
  0.9429536967E+00  0.1000000000E+01  0.1429536967E+00  0.1526031281E+01 -0.3474880294E-16 -0.5789755066E+00  0.6019740434E+15  0.1535807790E+01 -0.3476855681E-16 -0.6019903920E+00
  0.8469889352E+00  0.1000000000E+01  0.1429536967E+00  0.1388309838E+01 -0.5193056040E-16 -0.2746997311E+00  0.6019740434E+15  0.1393008423E+01 -0.5189198207E-16 -0.3058486815E+00
  0.8000000000E+00  0.1000000000E+01  0.1429536967E+00  0.7259933423E+00 -0.5801936603E-16 -0.2707634528E+00  0.6019740434E+15  0.7282784368E+00 -0.5799253012E-16 -0.3033900859E+00
  0.1200000000E+01  0.1000000000E+01  0.2570463033E+00  0.3423740099E+01 -0.1614991603E-16 -0.1240424014E+01  0.6019740434E+15  0.3431394350E+01 -0.1609665591E-16 -0.1239943597E+01
  0.1153011065E+01  0.1000000000E+01  0.2570463033E+00  0.3025402049E+01 -0.5157631154E-16 -0.1484143396E+01  0.6019740434E+15  0.3040124326E+01 -0.5304091108E-16 -0.1486955946E+01
  0.1057046303E+01  0.1000000000E+01  0.2570463033E+00  0.2496826107E+01 -0.4124481502E-16 -0.1102043720E+01  0.6019740434E+15  0.2517867726E+01 -0.4121319503E-16 -0.1111533614E+01
  0.9429536967E+00  0.1000000000E+01  0.2570463033E+00  0.1867296491E+01 -0.3493300583E-16 -0.1223097652E+01  0.6019740434E+15  0.1887908074E+01 -0.3600246059E-16 -0.1241238021E+01
  0.8469889352E+00  0.1000000000E+01  0.2570463033E+00  0.1576146965E+01 -0.1541493723E-16 -0.6969262900E+00  0.6019740434E+15  0.1587589993E+01 -0.1538824551E-16 -0.7217827830E+00
  0.8000000000E+00  0.1000000000E+01  0.2570463033E+00  0.1282631241E+01 -0.1338641909E-16 -0.6630740783E+00  0.6019740434E+15  0.1284229736E+01 -0.1339536917E-16 -0.6888245368E+00
  0.1200000000E+01  0.1000000000E+01  0.3530110648E+00  0.3120498149E+01  0.8181878468E-17 -0.2046153762E+01  0.6019740434E+15  0.3134301937E+01  0.8215046029E-17 -0.2046471838E+01
  0.1153011065E+01  0.1000000000E+01  0.3530110648E+00  0.2553427421E+01 -0.1078998986E-16 -0.1968057463E+01  0.6019740434E+15  0.2574312962E+01 -0.1103421043E-16 -0.1970591605E+01
  0.1057046303E+01  0.1000000000E+01  0.3530110648E+00  0.2161922366E+01 -0.2429648848E-16 -0.1620600257E+01  0.6019740434E+15  0.2189184461E+01 -0.2423858824E-16 -0.1627465982E+01
  0.9429536967E+00  0.1000000000E+01  0.3530110648E+00  0.1602561966E+01 -0.2415395880E-16 -0.1530613233E+01  0.6019740434E+15  0.1629227930E+01 -0.2491850107E-16 -0.1542228760E+01
  0.8469889352E+00  0.1000000000E+01  0.3530110648E+00  0.1447478834E+01 -0.6443761347E-17 -0.1067554384E+01  0.6019740434E+15  0.1462923288E+01 -0.5904334554E-17 -0.1082101623E+01
  0.8000000000E+00  0.1000000000E+01  0.3530110648E+00  0.1116293849E+01 -0.9288260056E-18 -0.9378097580E+00  0.6019740434E+15  0.1119202639E+01 -0.9571043786E-18 -0.9537225530E+00
  0.1200000000E+01  0.1000000000E+01  0.4000000000E+00  0.2648764940E+01  0.5568324535E-17 -0.2190122038E+01  0.6019740434E+15  0.2664561844E+01  0.5599032731E-17 -0.2203200769E+01
  0.1153011065E+01  0.1000000000E+01  0.4000000000E+00  0.2444232668E+01 -0.8675863528E-18 -0.2296097681E+01  0.6019740434E+15  0.2465997983E+01 -0.5741888852E-18 -0.2309968937E+01
  0.1057046303E+01  0.1000000000E+01  0.4000000000E+00  0.1921783288E+01 -0.1713326469E-16 -0.1826736421E+01  0.6019740434E+15  0.1950322445E+01 -0.1702002242E-16 -0.1840411658E+01
  0.9429536967E+00  0.1000000000E+01  0.4000000000E+00  0.1496542211E+01 -0.2649074946E-16 -0.1719646730E+01  0.6019740434E+15  0.1523996322E+01 -0.2720558285E-16 -0.1733779975E+01
  0.8469889352E+00  0.1000000000E+01  0.4000000000E+00  0.1248853483E+01 -0.1763691344E-16 -0.1185605373E+01  0.6019740434E+15  0.1265300543E+01 -0.1742992749E-16 -0.1198917946E+01
  0.8000000000E+00  0.1000000000E+01  0.4000000000E+00  0.1118018873E+01 -0.1089446840E-16 -0.1095375451E+01  0.6019740434E+15  0.1122290330E+01 -0.1089587993E-16 -0.1110525338E+01
ZONE I=6, J=6, K=1, F=POINT
  0.1600000000E+01  0.1000000000E+01  0.0000000000E+00  0.1305978072E+00 -0.8592739594E-18 -0.7328084918E-01  0.6019740434E+15  0.1303392222E+00 -0.9827411340E-18 -0.7280722568E-01
  0.1553011065E+01  0.1000000000E+01  0.0000000000E+00  0.9901626692E-02 -0.1322323620E-17  0.4542129632E-01  0.6019740434E+15  0.1013679903E-01 -0.1366232143E-17  0.4531501870E-01
  0.1457046303E+01  0.1000000000E+01  0.0000000000E+00 -0.8417851894E-02 -0.5019992940E-19 -0.3334653207E-02  0.6019740434E+15 -0.8229535051E-02 -0.7506354390E-19 -0.3258918890E-02
  0.1342953697E+01  0.1000000000E+01  0.0000000000E+00  0.4510091121E-02  0.3697640429E-18  0.3003124269E-01  0.6019740434E+15  0.4534017736E-02  0.3730163606E-18  0.2993219542E-01
  0.1246988935E+01  0.1000000000E+01  0.0000000000E+00 -0.8571167539E-02  0.1138103890E-18 -0.8184492579E-02  0.6019740434E+15 -0.8570393935E-02  0.1180937823E-18 -0.8059093020E-02
  0.1200000000E+01  0.1000000000E+01  0.0000000000E+00  0.5678727071E-01  0.7120358980E-19  0.3617909096E-01  0.6019740434E+15  0.5698924205E-01  0.7301598527E-19  0.3689563843E-01
  0.1600000000E+01  0.1000000000E+01  0.4698893521E-01  0.2744554300E+01 -0.8865530027E-16  0.1617212010E+00  0.6019740434E+15  0.2744173611E+01 -0.8863244291E-16  0.1577825626E+00
  0.1553011065E+01  0.1000000000E+01  0.4698893521E-01  0.3150262839E+01 -0.4551871069E-16 -0.3339382353E+00  0.6019740434E+15  0.3151167359E+01 -0.4548818756E-16 -0.3373374304E+00
  0.1457046303E+01  0.1000000000E+01  0.4698893521E-01  0.2131691301E+01 -0.6289629210E-17 -0.1163275552E+00  0.6019740434E+15  0.2131512222E+01 -0.6275232790E-17 -0.1174052627E+00
  0.1342953697E+01  0.1000000000E+01  0.4698893521E-01  0.2128421996E+01  0.3159521373E-16 -0.7965959970E-01  0.6019740434E+15  0.2127332736E+01  0.3158276746E-16 -0.7672503510E-01
  0.1246988935E+01  0.1000000000E+01  0.4698893521E-01  0.1613988230E+01 -0.4192136755E-17 -0.2950698357E-01  0.6019740434E+15  0.1613266329E+01 -0.4222943583E-17 -0.2433106790E-01
  0.1200000000E+01  0.1000000000E+01  0.4698893521E-01  0.2020260798E+01 -0.4532527969E-16 -0.2087781490E+00  0.6019740434E+15  0.2018944938E+01 -0.4529323091E-16 -0.2039897784E+00
  0.1600000000E+01  0.1000000000E+01  0.1429536967E+00  0.5048546417E+01 -0.2672936654E-15 -0.2084630268E+01  0.6019740434E+15  0.5036084570E+01 -0.2672464480E-15 -0.2098400577E+01
  0.1553011065E+01  0.1000000000E+01  0.1429536967E+00  0.6650326949E+01 -0.1581827694E-15 -0.1150145432E+01  0.6019740434E+15  0.6648958753E+01 -0.1581334121E-15 -0.1163499427E+01
  0.1457046303E+01  0.1000000000E+01  0.1429536967E+00  0.4539906194E+01  0.3110464633E-16 -0.9830961714E+00  0.6019740434E+15  0.4536864171E+01  0.3067860380E-16 -0.9925225060E+00
  0.1342953697E+01  0.1000000000E+01  0.1429536967E+00  0.4600788117E+01  0.1088165960E-15 -0.1523547983E+00  0.6019740434E+15  0.4595850036E+01  0.1086236074E-15 -0.1561215930E+00
  0.1246988935E+01  0.1000000000E+01  0.1429536967E+00  0.3419685862E+01  0.3022882939E-16 -0.5982884223E+00  0.6019740434E+15  0.3419567642E+01  0.3039943576E-16 -0.5987498152E+00
  0.1200000000E+01  0.1000000000E+01  0.1429536967E+00  0.4248482105E+01 -0.6091208252E-16 -0.4664159937E+00  0.6019740434E+15  0.4247552286E+01 -0.6090164443E-16 -0.4682351108E+00
  0.1600000000E+01  0.1000000000E+01  0.2570463033E+00  0.8640944340E+01  0.5518962278E-16 -0.4224166245E+01  0.6019740434E+15  0.8649238310E+01  0.5516594773E-16 -0.4233085609E+01
  0.1553011065E+01  0.1000000000E+01  0.2570463033E+00  0.7497150950E+01  0.7774790379E-16 -0.2861637859E+01  0.6019740434E+15  0.7497393894E+01  0.7759208162E-16 -0.2867695011E+01
  0.1457046303E+01  0.1000000000E+01  0.2570463033E+00  0.6133333394E+01  0.1676394806E-15 -0.2372260235E+01  0.6019740434E+15  0.6126713590E+01  0.1670840878E-15 -0.2377256524E+01
  0.1342953697E+01  0.1000000000E+01  0.2570463033E+00  0.4729385385E+01  0.1338390384E-15 -0.9225091965E+00  0.6019740434E+15  0.4721633152E+01  0.1333196229E-15 -0.9241744270E+00
  0.1246988935E+01  0.1000000000E+01  0.2570463033E+00  0.3742385602E+01  0.3833530514E-16 -0.1477644491E+01  0.6019740434E+15  0.3741776678E+01  0.3827812476E-16 -0.1476544360E+01
  0.1200000000E+01  0.1000000000E+01  0.2570463033E+00  0.3464600999E+01 -0.1647046915E-16 -0.1232683900E+01  0.6019740434E+15  0.3472364645E+01 -0.1641433609E-16 -0.1233933584E+01
  0.1600000000E+01  0.1000000000E+01  0.3530110648E+00  0.6407793493E+01  0.1032443639E-15 -0.4980369932E+01  0.6019740434E+15  0.6414267593E+01  0.1032544955E-15 -0.4972018275E+01
  0.1553011065E+01  0.1000000000E+01  0.3530110648E+00  0.6502675069E+01  0.1206317357E-15 -0.4480081386E+01  0.6019740434E+15  0.6504726150E+01  0.1206545100E-15 -0.4474770067E+01
  0.1457046303E+01  0.1000000000E+01  0.3530110648E+00  0.5315780377E+01  0.1474731651E-15 -0.3448395143E+01  0.6019740434E+15  0.5309060064E+01  0.1468574194E-15 -0.3444924791E+01
  0.1342953697E+01  0.1000000000E+01  0.3530110648E+00  0.4291059343E+01  0.1252344068E-15 -0.2182115441E+01  0.6019740434E+15  0.4281586627E+01  0.1248814416E-15 -0.2178687484E+01
  0.1246988935E+01  0.1000000000E+01  0.3530110648E+00  0.3157585354E+01  0.4205466902E-16 -0.2126935484E+01  0.6019740434E+15  0.3158482784E+01  0.4210917893E-16 -0.2124527320E+01
  0.1200000000E+01  0.1000000000E+01  0.3530110648E+00  0.3196633682E+01  0.8252053088E-17 -0.2046938536E+01  0.6019740434E+15  0.3208292764E+01  0.8265118828E-17 -0.2046860623E+01
  0.1600000000E+01  0.1000000000E+01  0.4000000000E+00  0.6387970129E+01  0.8405448698E-16 -0.5856379405E+01  0.6019740434E+15  0.6397800494E+01  0.8404756274E-16 -0.5857457761E+01
  0.1553011065E+01  0.1000000000E+01  0.4000000000E+00  0.5628617768E+01  0.1149573177E-15 -0.4564790286E+01  0.6019740434E+15  0.5632928494E+01  0.1150500670E-15 -0.4566123276E+01
  0.1457046303E+01  0.1000000000E+01  0.4000000000E+00  0.5001785240E+01  0.1198928215E-15 -0.3936013652E+01  0.6019740434E+15  0.4994805244E+01  0.1200513749E-15 -0.3936821348E+01
  0.1342953697E+01  0.1000000000E+01  0.4000000000E+00  0.3836564884E+01  0.1191346469E-15 -0.2458432315E+01  0.6019740434E+15  0.3828929969E+01  0.1185376506E-15 -0.2463912958E+01
  0.1246988935E+01  0.1000000000E+01  0.4000000000E+00  0.3071272448E+01  0.3243056923E-16 -0.2540490988E+01  0.6019740434E+15  0.3073899092E+01  0.3246975987E-16 -0.2550445586E+01
  0.1200000000E+01  0.1000000000E+01  0.4000000000E+00  0.2624796094E+01  0.5825987868E-17 -0.2180098570E+01  0.6019740434E+15  0.2641953788E+01  0.5838836580E-17 -0.2194696964E+01
ZONE I=6, J=6, K=1, F=POINT
  0.2000000000E+01  0.1000000000E+01  0.0000000000E+00  0.2402568363E+01  0.7166449071E-19  0.2123385057E+02  0.6019740434E+15  0.2430545708E+01  0.9357785920E-19  0.2215507775E+02
  0.1953011065E+01  0.1000000000E+01  0.0000000000E+00  0.1291974599E+01 -0.3730701255E-16 -0.1362362621E+00  0.6019740434E+15  0.1296359313E+01 -0.3607566712E-16 -0.1496253441E+00
  0.1857046303E+01  0.1000000000E+01  0.0000000000E+00 -0.3059238543E+00 -0.1878381551E-16  0.1528978476E+00  0.6019740434E+15 -0.3065035370E+00 -0.1927443187E-16  0.1511215767E+00
  0.1742953697E+01  0.1000000000E+01  0.0000000000E+00  0.1349916136E+00  0.2967042309E-18 -0.3861285658E-01  0.6019740434E+15  0.1357536903E+00  0.2184158345E-18 -0.3813128101E-01
  0.1646988935E+01  0.1000000000E+01  0.0000000000E+00 -0.1271296021E+00  0.3990857826E-18  0.6066569649E-01  0.6019740434E+15 -0.1267589052E+00  0.3614769105E-18  0.5973632976E-01
  0.1600000000E+01  0.1000000000E+01  0.0000000000E+00  0.8795661358E-01 -0.9372053041E-18 -0.8557654069E-01  0.6019740434E+15  0.8751655363E-01 -0.1063373364E-17 -0.8373599518E-01
  0.2000000000E+01  0.1000000000E+01  0.4698893521E-01 -0.1139322218E-01  0.7317715274E-18  0.4848379498E+02  0.6019740434E+15 -0.5380235785E-01  0.6825589356E-18  0.4865883081E+02
  0.1953011065E+01  0.1000000000E+01  0.4698893521E-01  0.1100998238E+02  0.1458518701E-15  0.1511442207E+01  0.6019740434E+15  0.1099998954E+02  0.1446342006E-15  0.1531904029E+01
  0.1857046303E+01  0.1000000000E+01  0.4698893521E-01  0.1184223622E+02  0.3208968634E-15 -0.1873505104E+01  0.6019740434E+15  0.1184795041E+02  0.3213985255E-15 -0.1869044389E+01
  0.1742953697E+01  0.1000000000E+01  0.4698893521E-01  0.5831535748E+01 -0.3944206489E-17 -0.7315611805E+00  0.6019740434E+15  0.5839040115E+01 -0.3641066829E-17 -0.7358081806E+00
  0.1646988935E+01  0.1000000000E+01  0.4698893521E-01  0.4270847637E+01 -0.1137316348E-15 -0.7126512100E+00  0.6019740434E+15  0.4271387476E+01 -0.1139396585E-15 -0.7155448512E+00
  0.1600000000E+01  0.1000000000E+01  0.4698893521E-01  0.2582293984E+01 -0.8579415270E-16  0.1472596114E+00  0.6019740434E+15  0.2590650748E+01 -0.8556790665E-16  0.1380982381E+00
  0.2000000000E+01  0.1000000000E+01  0.1429536967E+00 -0.2810226934E+00  0.2543554070E-17  0.5050413444E+02  0.6019740434E+15 -0.2568012680E+00  0.2521044885E-17  0.5044093422E+02
  0.1953011065E+01  0.1000000000E+01  0.1429536967E+00  0.2815756674E+01 -0.5095109528E-15  0.1658370985E+02  0.6019740434E+15  0.2804491622E+01 -0.5092213650E-15  0.1662334211E+02
  0.1857046303E+01  0.1000000000E+01  0.1429536967E+00  0.1263245070E+02 -0.2432290038E-15 -0.3686829702E+01  0.6019740434E+15  0.1263992130E+02 -0.2439146613E-15 -0.3680902473E+01
  0.1742953697E+01  0.1000000000E+01  0.1429536967E+00  0.9350561345E+01  0.7140186326E-16 -0.4574353306E+01  0.6019740434E+15  0.9363898008E+01  0.7185212643E-16 -0.4584778056E+01
  0.1646988935E+01  0.1000000000E+01  0.1429536967E+00  0.8219630605E+01 -0.1372343424E-15 -0.2455358417E+01  0.6019740434E+15  0.8222619778E+01 -0.1368611576E-15 -0.2468018729E+01
  0.1600000000E+01  0.1000000000E+01  0.1429536967E+00  0.4683464822E+01 -0.2834047232E-15 -0.2083409274E+01  0.6019740434E+15  0.4706176182E+01 -0.2838735512E-15 -0.2102762089E+01
  0.2000000000E+01  0.1000000000E+01  0.2570463033E+00  0.1742510959E-01  0.1049062036E-17  0.4987231496E+02  0.6019740434E+15  0.1677863793E-01  0.9713689298E-18  0.4987762039E+02