TITLE = "Generated from ../MESH/Convergence_0000000000.hmesh and Convergence_0000005800.hsol"
VARIABLES = "x","y","z","veloT_x","veloT_y","veloT_z","slr_4","velo_x","velo_y","velo_z"
ZONE I=6, J=6, K=1, F=POINT
  0.4000000000E+00  0.1000000000E+01  0.0000000000E+00 -0.1218218878E-01  0.2733560560E-19  0.7323177578E-02  0.6725244837E+15 -0.1166406433E-01  0.2763012911E-19  0.7407485125E-02
  0.3530110648E+00  0.1000000000E+01  0.0000000000E+00 -0.1309251880E-02  0.8654077505E-20 -0.2559612880E-03  0.6725244837E+15 -0.8984112251E-03  0.7897226631E-20 -0.2049023634E-03
  0.2570463033E+00  0.1000000000E+01  0.0000000000E+00  0.1352554032E-03  0.1284543474E-20  0.2361875531E-02  0.6725244837E+15  0.4827356564E-03  0.7829900823E-21  0.2382951754E-02
  0.1429536967E+00  0.1000000000E+01  0.0000000000E+00 -0.7052875165E-03  0.3030177470E-21 -0.1059021845E-02  0.6725244837E+15 -0.2202381079E-03  0.1431463853E-21 -0.1042935829E-02
  0.4698893521E-01  0.1000000000E+01  0.0000000000E+00  0.2039971074E-02 -0.2401082670E-20  0.1966145468E-02  0.6725244837E+15  0.2416342846E-02 -0.2390461014E-20  0.1879286011E-02
  0.0000000000E+00  0.1000000000E+01  0.0000000000E+00 -0.7517368982E-02  0.1468753507E-22  0.2052896822E-02  0.6725244837E+15 -0.7492982259E-02  0.1352642400E-22  0.1972602527E-02
  0.4000000000E+00  0.1000000000E+01  0.4698893521E-01  0.2675052486E+00  0.3229063425E-17 -0.6452931877E-01  0.6725244837E+15  0.2685667009E+00  0.3223495159E-17 -0.4931042591E-01
  0.3530110648E+00  0.1000000000E+01  0.4698893521E-01  0.1242759990E+00  0.2967908048E-17 -0.2411933866E-01  0.6725244837E+15  0.1271155946E+00  0.2922654573E-17 -0.1161495931E-01
  0.2570463033E+00  0.1000000000E+01  0.4698893521E-01  0.9545114306E-01  0.1218480080E-17 -0.2403246208E-01  0.6725244837E+15  0.9793695636E-01  0.1222498007E-17 -0.1918226038E-01
  0.1429536967E+00  0.1000000000E+01  0.4698893521E-01  0.2431860379E-02  0.3630603404E-18 -0.1058859414E-01  0.6725244837E+15  0.4293369371E-02  0.3686428155E-18 -0.9901696866E-02
  0.4698893521E-01  0.1000000000E+01  0.4698893521E-01 -0.2314433949E-02  0.8749750542E-19 -0.8148108732E-02  0.6725244837E+15 -0.6034202026E-03  0.8895707362E-19 -0.8706435764E-02
  0.0000000000E+00  0.1000000000E+01  0.4698893521E-01 -0.1814826896E-01  0.1062217950E-20  0.2171286977E-02  0.6725244837E+15 -0.1809671488E-01  0.1028592586E-20  0.1919445941E-02
  0.4000000000E+00  0.1000000000E+01  0.1429536967E+00  0.6120824002E+00  0.1025492098E-16 -0.1430876360E+00  0.6725244837E+15  0.6164753240E+00  0.1031824509E-16 -0.1246334143E+00
  0.3530110648E+00  0.1000000000E+01  0.1429536967E+00  0.3394938713E+00  0.6646187381E-17 -0.1793094821E+00  0.6725244837E+15  0.3507699497E+00  0.6532702330E-17 -0.1635366764E+00
  0.2570463033E+00  0.1000000000E+01  0.1429536967E+00  0.2296663954E+00  0.2843473711E-17 -0.1133853901E+00  0.6725244837E+15  0.2396420959E+00  0.2851684259E-17 -0.1053305213E+00
  0.1429536967E+00  0.1000000000E+01  0.1429536967E+00  0.3322492209E-01  0.1147098171E-17 -0.1156969489E+00  0.6725244837E+15  0.3785462257E-01  0.1148271485E-17 -0.1141434123E+00
  0.4698893521E-01  0.1000000000E+01  0.1429536967E+00 -0.7301275455E-02  0.3031852233E-18 -0.8248401864E-02  0.6725244837E+15 -0.4254509917E-02  0.3071739292E-18 -0.9201015198E-02
  0.0000000000E+00  0.1000000000E+01  0.1429536967E+00 -0.2131429026E-01  0.3105500685E-21 -0.1529212173E-02  0.6725244837E+15 -0.2130398369E-01  0.1364605715E-21 -0.1841575881E-02
  0.4000000000E+00  0.1000000000E+01  0.2570463033E+00  0.7437437556E+00  0.4746138280E-17 -0.4152488366E+00  0.6725244837E+15  0.7510173863E+00  0.4756822225E-17 -0.4012522170E+00
  0.3530110648E+00  0.1000000000E+01  0.2570463033E+00  0.5451213279E+00  0.3700546913E-17 -0.4534827413E+00  0.6725244837E+15  0.5616626115E+00  0.3883997894E-17 -0.4408145249E+00
  0.2570463033E+00  0.1000000000E+01  0.2570463033E+00  0.3226289337E+00  0.2709760289E-17 -0.3163323635E+00  0.6725244837E+15  0.3393721858E+00  0.2708214319E-17 -0.3072151436E+00
  0.1429536967E+00  0.1000000000E+01  0.2570463033E+00  0.8998903101E-01  0.1902910012E-17 -0.2856478075E+00  0.6725244837E+15  0.9969599119E-01  0.1901462161E-17 -0.2825887519E+00
  0.4698893521E-01  0.1000000000E+01  0.2570463033E+00  0.9770485196E-02  0.1187361219E-17 -0.4944547866E-01  0.6725244837E+15  0.1446232333E-01  0.1184643017E-17 -0.4965266919E-01
  0.0000000000E+00  0.1000000000E+01  0.2570463033E+00 -0.1415772163E-01 -0.4222850742E-20 -0.1507830943E-02  0.6725244837E+15 -0.1419130965E-01 -0.3788419666E-20 -0.1451938858E-02
  0.4000000000E+00  0.1000000000E+01  0.3530110648E+00  0.8183704196E+00  0.5285473069E-17 -0.7280088076E+00  0.6725244837E+15  0.8294692212E+00  0.5274202707E-17 -0.7062912661E+00
  0.3530110648E+00  0.1000000000E+01  0.3530110648E+00  0.5997037105E+00  0.4655846061E-17 -0.7259632461E+00  0.6725244837E+15  0.6192570084E+00  0.4659426522E-17 -0.7060620614E+00
  0.2570463033E+00  0.1000000000E+01  0.3530110648E+00  0.3506442732E+00  0.2610530900E-17 -0.5470718578E+00  0.6725244837E+15  0.3729349724E+00  0.2403657034E-17 -0.5326368851E+00
  0.1429536967E+00  0.1000000000E+01  0.3530110648E+00  0.1004774683E+00  0.2346364105E-17 -0.4354892242E+00  0.6725244837E+15  0.1158536970E+00  0.2305618922E-17 -0.4306195063E+00
  0.4698893521E-01  0.1000000000E+01  0.3530110648E+00  0.1607617036E-01  0.7238684923E-18 -0.1149282422E+00  0.6725244837E+15  0.2244761005E-01  0.7220970908E-18 -0.1147079452E+00
  0.0000000000E+00  0.1000000000E+01  0.3530110648E+00 -0.1435309787E-01  0.5125829208E-20 -0.1939825986E-02  0.6725244837E+15 -0.1428001521E-01  0.5604719883E-20 -0.1752595338E-02
  0.4000000000E+00  0.1000000000E+01  0.4000000000E+00  0.8184462494E+00  0.7286953938E-17 -0.8894201824E+00  0.6725244837E+15  0.8326222173E+00  0.7289018528E-17 -0.8605628400E+00
  0.3530110648E+00  0.1000000000E+01  0.4000000000E+00  0.6442000034E+00  0.6324732308E-17 -0.8763512317E+00  0.6725244837E+15  0.6656111526E+00  0.6252525984E-17 -0.8493274384E+00
  0.2570463033E+00  0.1000000000E+01  0.4000000000E+00  0.3591159831E+00  0.2674280873E-17 -0.6743838622E+00  0.6725244837E+15  0.3858508654E+00  0.2779682773E-17 -0.6544850021E+00
  0.1429536967E+00  0.1000000000E+01  0.4000000000E+00  0.1126063097E+00  0.2464898422E-17 -0.5209375790E+00  0.6725244837E+15  0.1321668581E+00  0.2518999053E-17 -0.5148847422E+00
  0.4698893521E-01  0.1000000000E+01  0.4000000000E+00  0.1346034133E-01  0.6993697102E-18 -0.1465537372E+00  0.6725244837E+15  0.2103364824E-01  0.7003545873E-18 -0.1474016720E+00
  0.0000000000E+00  0.1000000000E+01  0.4000000000E+00 -0.6880375958E-02  0.8440059236E-20 -0.3507194918E-02  0.6725244837E+15 -0.6362108699E-02  0.8013275559E-20 -0.3692991264E-02
ZONE I=6, J=6, K=1, F=POINT
  0.8000000000E+00  0.1000000000E+01  0.0000000000E+00  0.1595391035E-01 -0.8634473395E-19 -0.1154697507E-01  0.6725244837E+15  0.1691120354E-01 -0.8971290667E-19 -0.1152486525E-01
  0.7530110648E+00  0.1000000000E+01  0.0000000000E+00  0.3237664648E-03  0.3809024653E-19  0.5975214845E-02  0.6725244837E+15  0.1437945446E-02  0.6052185558E-19  0.6037722114E-02
  0.6570463033E+00  0.1000000000E+01  0.0000000000E+00 -0.1906689295E-02  0.3850893795E-20  0.3400768976E-03  0.6725244837E+15 -0.8934285893E-03  0.1728419867E-19  0.3577001274E-03
  0.5429536967E+00  0.1000000000E+01  0.0000000000E+00 -0.2795996770E-03 -0.2412618869E-20  0.7094785180E-02  0.6725244837E+15  0.5799583169E-03  0.1991173840E-19  0.7084266155E-02
  0.4469889352E+00  0.1000000000E+01  0.0000000000E+00 -0.2684893358E-02 -0.6163357593E-19  0.7094500131E-03  0.6725244837E+15 -0.1946723259E-02 -0.3975321305E-19  0.7258902929E-03
  0.4000000000E+00  0.1000000000E+01  0.0000000000E+00  0.1427781536E-01  0.3099588054E-19  0.7005627685E-02  0.6725244837E+15  0.1488174136E-01  0.3129698603E-19  0.7121569132E-02
  0.8000000000E+00  0.1000000000E+01  0.4698893521E-01  0.3594666727E+00 -0.2298526633E-16 -0.4100348343E-02  0.6725244837E+15  0.3582738137E+00 -0.2296452981E-16  0.9211708968E-03
  0.7530110648E+00  0.1000000000E+01  0.4698893521E-01  0.5499965995E+00 -0.2230697210E-16 -0.6226557104E-01  0.6725244837E+15  0.5490277380E+00 -0.2226042553E-16 -0.5597845566E-01
  0.6570463033E+00  0.1000000000E+01  0.4698893521E-01  0.3212845593E+00 -0.4225412291E-17 -0.3154753428E-01  0.6725244837E+15  0.3210995906E+00 -0.4214754621E-17 -0.2273615575E-01
  0.5429536967E+00  0.1000000000E+01  0.4698893521E-01  0.3435106230E+00  0.4517807889E-17 -0.2380589687E-01  0.6725244837E+15  0.3429725323E+00  0.4515941721E-17 -0.1270830378E-01
  0.4469889352E+00  0.1000000000E+01  0.4698893521E-01  0.2087708931E+00  0.4189588133E-17 -0.2068279850E-01  0.6725244837E+15  0.2081924181E+00  0.4180214758E-17 -0.5769154962E-02
  0.4000000000E+00  0.1000000000E+01  0.4698893521E-01  0.3096823259E+00  0.2987794872E-17 -0.6529247520E-01  0.6725244837E+15  0.3105977202E+00  0.2982818273E-17 -0.5007278901E-01
  0.8000000000E+00  0.1000000000E+01  0.1429536967E+00  0.1172455895E+01 -0.5237262458E-16 -0.3990932685E+00  0.6725244837E+15  0.1168824772E+01 -0.5244867716E-16 -0.3861728752E+00
  0.7530110648E+00  0.1000000000E+01  0.1429536967E+00  0.1451736937E+01 -0.3226788613E-16 -0.2495433703E+00  0.6725244837E+15  0.1447848536E+01 -0.3233552119E-16 -0.2356958463E+00
  0.6570463033E+00  0.1000000000E+01  0.1429536967E+00  0.9804760763E+00 -0.2332366551E-17 -0.2361811465E+00  0.6725244837E+15  0.9788613856E+00 -0.2256286934E-17 -0.2215006530E+00
  0.5429536967E+00  0.1000000000E+01  0.1429536967E+00  0.8839581927E+00  0.1037193737E-16 -0.8680369613E-01  0.6725244837E+15  0.8802349575E+00  0.1027534877E-16 -0.7059136102E-01
  0.4469889352E+00  0.1000000000E+01  0.1429536967E+00  0.5587413448E+00  0.1027248763E-16 -0.1677068229E+00  0.6725244837E+15  0.5554947122E+00  0.1020619221E-16 -0.1490405424E+00
  0.4000000000E+00  0.1000000000E+01  0.1429536967E+00  0.6635991629E+00  0.1096664547E-16 -0.1425312030E+00  0.6725244837E+15  0.6677597169E+00  0.1102721447E-16 -0.1240792644E+00
  0.8000000000E+00  0.1000000000E+01  0.2570463033E+00  0.2297611157E+01 -0.1081460801E-16 -0.1005285177E+01  0.6725244837E+15  0.2293092691E+01 -0.1083224525E-16 -0.9828658783E+00
  0.7530110648E+00  0.1000000000E+01  0.2570463033E+00  0.2137404420E+01 -0.7200501629E-17 -0.7418977439E+00  0.6725244837E+15  0.2135045624E+01 -0.6886166313E-17 -0.7205584038E+00
  0.6570463033E+00  0.1000000000E+01  0.2570463033E+00  0.1616499710E+01 -0.1551837087E-17 -0.6594343590E+00  0.6725244837E+15  0.1616317524E+01 -0.1547664421E-17 -0.6412755818E+00
  0.5429536967E+00  0.1000000000E+01  0.2570463033E+00  0.1222297718E+01  0.4063155187E-17 -0.3826928023E+00  0.6725244837E+15  0.1218105656E+01  0.3987196231E-17 -0.3662876161E+00
  0.4469889352E+00  0.1000000000E+01  0.2570463033E+00  0.8457377777E+00  0.4840239077E-17 -0.4699256894E+00  0.6725244837E+15  0.8429586546E+00  0.5035604736E-17 -0.4549910998E+00
  0.4000000000E+00  0.1000000000E+01  0.2570463033E+00  0.7740570580E+00  0.4771177206E-17 -0.4145987716E+00  0.6725244837E+15  0.7812267048E+00  0.4781044656E-17 -0.4006432196E+00
  0.8000000000E+00  0.1000000000E+01  0.3530110648E+00  0.2608364021E+01  0.4136348623E-17 -0.1563147388E+01  0.6725244837E+15  0.2605380794E+01  0.4111104021E-17 -0.1532604162E+01
  0.7530110648E+00  0.1000000000E+01  0.3530110648E+00  0.2462949729E+01  0.6717633138E-17 -0.1327274471E+01  0.6725244837E+15  0.2464130977E+01  0.6797071081E-17 -0.1297771564E+01
  0.6570463033E+00  0.1000000000E+01  0.3530110648E+00  0.1883600289E+01  0.1589166478E-17 -0.1115594305E+01  0.6725244837E+15  0.1884856283E+01  0.1139214549E-17 -0.1086787120E+01
  0.5429536967E+00  0.1000000000E+01  0.3530110648E+00  0.1392243039E+01  0.4376691536E-18 -0.7796544145E+00  0.6725244837E+15  0.1389472070E+01  0.3576266023E-18 -0.7494989924E+00
  0.4469889352E+00  0.1000000000E+01  0.3530110648E+00  0.9164653245E+00  0.5016836307E-17 -0.7874356211E+00  0.6725244837E+15  0.9178816140E+00  0.4795188620E-17 -0.7619832120E+00
  0.4000000000E+00  0.1000000000E+01  0.3530110648E+00  0.8515537317E+00  0.5258261953E-17 -0.7278148530E+00  0.6725244837E+15  0.8617644486E+00  0.5249699026E-17 -0.7061031031E+00
  0.8000000000E+00  0.1000000000E+01  0.4000000000E+00  0.2737963129E+01 -0.1941471674E-17 -0.1891742707E+01  0.6725244837E+15  0.2734897408E+01 -0.1931460187E-17 -0.1858911072E+01
  0.7530110648E+00  0.1000000000E+01  0.4000000000E+00  0.2459172783E+01  0.8268502161E-18 -0.1593858856E+01  0.6725244837E+15  0.2461023007E+01  0.6691305546E-18 -0.1559522967E+01
  0.6570463033E+00  0.1000000000E+01  0.4000000000E+00  0.1925342530E+01  0.1958955153E-17 -0.1362322016E+01  0.6725244837E+15  0.1924557878E+01  0.2154771059E-17 -0.1324265484E+01
  0.5429536967E+00  0.1000000000E+01  0.4000000000E+00  0.1402908477E+01  0.8088010371E-17 -0.1025626036E+01  0.6725244837E+15  0.1400466921E+01  0.8362791204E-17 -0.9806565414E+00
  0.4469889352E+00  0.1000000000E+01  0.4000000000E+00  0.9875551289E+00  0.7903030224E-17 -0.9758890706E+00  0.6725244837E+15  0.9945415897E+00  0.7930114072E-17 -0.9400825841E+00
  0.4000000000E+00  0.1000000000E+01  0.4000000000E+00  0.8312023545E+00  0.7310166799E-17 -0.8886403181E+00  0.6725244837E+15  0.8449359929E+00  0.7310997747E-17 -0.8598289049E+00
ZONE I=6, J=6, K=1, F=POINT
  0.1200000000E+01  0.1000000000E+01  0.0000000000E+00 -0.3424676770E-01  0.5640730730E-19  0.3684739371E-01  0.6725244837E+15 -0.3446496544E-01  0.5702687980E-19  0.3648756881E-01
  0.1153011065E+01  0.1000000000E+01  0.0000000000E+00 -0.7257497170E-02 -0.3224757660E-18 -0.9582501558E-02  0.6725244837E+15 -0.7402074836E-02 -0.3355033481E-18 -0.9634600632E-02
  0.1057046303E+01  0.1000000000E+01  0.0000000000E+00  0.2081775544E-03 -0.3029094459E-19  0.5861071678E-02  0.6725244837E+15  0.2543380120E-03 -0.3032612261E-19  0.5871966142E-02
  0.9429536967E+00  0.1000000000E+01  0.0000000000E+00 -0.4052390025E-02  0.2221948404E-20 -0.8385751344E-02  0.6725244837E+15 -0.3808246753E-02 -0.2111562302E-21 -0.8300988556E-02
  0.8469889352E+00  0.1000000000E+01  0.0000000000E+00  0.1569069965E-02 -0.2119533947E-19  0.5268805743E-02  0.6725244837E+15  0.2004997276E-02 -0.2302828430E-19  0.5323406395E-02
  0.8000000000E+00  0.1000000000E+01  0.0000000000E+00 -0.2908921240E-01 -0.9611187805E-19 -0.1102994074E-01  0.6725244837E+15 -0.2848443474E-01 -0.9970257268E-19 -0.1100410201E-01
  0.1200000000E+01  0.1000000000E+01  0.4698893521E-01  0.2273458328E+01 -0.4184451403E-16 -0.2224709162E+00  0.6725244837E+15  0.2269399845E+01 -0.4164307281E-16 -0.2136071556E+00
  0.1153011065E+01  0.1000000000E+01  0.4698893521E-01  0.1577283047E+01 -0.2579966015E-16 -0.7783945173E-01  0.6725244837E+15  0.1574317108E+01 -0.2571406426E-16 -0.7008793756E-01
  0.1057046303E+01  0.1000000000E+01  0.4698893521E-01  0.1428276774E+01 -0.1184806835E-16 -0.1127648376E+00  0.6725244837E+15  0.1425178077E+01 -0.1187721813E-16 -0.1079738147E+00
  0.9429536967E+00  0.1000000000E+01  0.4698893521E-01  0.8053722713E+00 -0.1403331609E-16 -0.9882796129E-01  0.6725244837E+15  0.8025397321E+00 -0.1394804050E-16 -0.9365864737E-01
  0.8469889352E+00  0.1000000000E+01  0.4698893521E-01  0.6933917587E+00 -0.2689090031E-16 -0.9245244582E-01  0.6725244837E+15  0.6916669501E+00 -0.2681832813E-16 -0.8731818996E-01
  0.8000000000E+00  0.1000000000E+01  0.4698893521E-01  0.2985216320E+00 -0.2228700828E-16 -0.2025257367E-02  0.6725244837E+15  0.2973434569E+00 -0.2227034470E-16  0.2941574252E-02
  0.1200000000E+01  0.1000000000E+01  0.1429536967E+00  0.5314863863E+01 -0.5789468045E-16 -0.6664471672E+00  0.6725244837E+15  0.5314269079E+01 -0.5774406401E-16 -0.6656934847E+00
  0.1153011065E+01  0.1000000000E+01  0.1429536967E+00  0.3847037498E+01 -0.6652093554E-16 -0.8776366653E+00  0.6725244837E+15  0.3845849443E+01 -0.6664952926E-16 -0.8756587941E+00
  0.1057046303E+01  0.1000000000E+01  0.1429536967E+00  0.3430659420E+01 -0.3695730127E-16 -0.6658346746E+00  0.6725244837E+15  0.3427076101E+01 -0.3695248649E-16 -0.6612947220E+00
  0.9429536967E+00  0.1000000000E+01  0.1429536967E+00  0.2132604972E+01 -0.3253047846E-16 -0.7734626860E+00  0.6725244837E+15  0.2127878865E+01 -0.3251575662E-16 -0.7651323382E+00
  0.8469889352E+00  0.1000000000E+01  0.1429536967E+00  0.1818480491E+01 -0.4829383898E-16 -0.4209366437E+00  0.6725244837E+15  0.1815595460E+01 -0.4828765933E-16 -0.4094578457E+00
  0.8000000000E+00  0.1000000000E+01  0.1429536967E+00  0.1088936195E+01 -0.5458269506E-16 -0.4007244163E+00  0.6725244837E+15  0.1086708952E+01 -0.5468325069E-16 -0.3877779710E+00
  0.1200000000E+01  0.1000000000E+01  0.2570463033E+00  0.5740869064E+01 -0.5520715971E-17 -0.1807788073E+01  0.6725244837E+15  0.5733630528E+01 -0.5461255875E-17 -0.1798588220E+01
  0.1153011065E+01  0.1000000000E+01  0.2570463033E+00  0.5189303317E+01 -0.3776024324E-16 -0.2064678219E+01  0.6725244837E+15  0.5182872861E+01 -0.3685809306E-16 -0.2054991376E+01
  0.1057046303E+01  0.1000000000E+01  0.2570463033E+00  0.4312510453E+01 -0.2928897610E-16 -0.1681463195E+01  0.6725244837E+15  0.4304383649E+01 -0.2931403765E-16 -0.1667772237E+01
  0.9429536967E+00  0.1000000000E+01  0.2570463033E+00  0.3285634669E+01 -0.2760528324E-16 -0.1728542162E+01  0.6725244837E+15  0.3276306536E+01 -0.2709394237E-16 -0.1709876127E+01
  0.8469889352E+00  0.1000000000E+01  0.2570463033E+00  0.2686611001E+01 -0.1271706326E-16 -0.1087067869E+01  0.6725244837E+15  0.2680104913E+01 -0.1265595429E-16 -0.1065311995E+01
  0.8000000000E+00  0.1000000000E+01  0.2570463033E+00  0.2259795034E+01 -0.1097399668E-16 -0.1007903678E+01  0.6725244837E+15  0.2255359612E+01 -0.1097467630E-16 -0.9850799209E+00
  0.1200000000E+01  0.1000000000E+01  0.3530110648E+00  0.6145176488E+01  0.3311681219E-16 -0.2978821057E+01  0.6725244837E+15  0.6137891535E+01  0.3314507784E-16 -0.2959979523E+01
  0.1153011065E+01  0.1000000000E+01  0.3530110648E+00  0.5403655839E+01  0.1422237922E-16 -0.2921792754E+01  0.6725244837E+15  0.5396688599E+01  0.1433728406E-16 -0.2903066258E+01
  0.1057046303E+01  0.1000000000E+01  0.3530110648E+00  0.4628989331E+01 -0.5426306623E-17 -0.2572178766E+01  0.6725244837E+15  0.4617431821E+01 -0.5698009268E-17 -0.2552154139E+01
  0.9429536967E+00  0.1000000000E+01  0.3530110648E+00  0.3612773969E+01 -0.1186106207E-16 -0.2372596019E+01  0.6725244837E+15  0.3599185119E+01 -0.1162215771E-16 -0.2346329075E+01
  0.8469889352E+00  0.1000000000E+01  0.3530110648E+00  0.3075376448E+01  0.8086718141E-18 -0.1758545310E+01  0.6725244837E+15  0.3067718727E+01  0.3135449907E-18 -0.1728222038E+01
  0.8000000000E+00  0.1000000000E+01  0.3530110648E+00  0.2561408796E+01  0.4180940233E-17 -0.1563437629E+01  0.6725244837E+15  0.2558740572E+01  0.4170280745E-17 -0.1532916519E+01
  0.1200000000E+01  0.1000000000E+01  0.4000000000E+00  0.5908019104E+01  0.3825099677E-16 -0.3300308924E+01  0.6725244837E+15  0.5898828426E+01  0.3825996763E-16 -0.3297236335E+01
  0.1153011065E+01  0.1000000000E+01  0.4000000000E+00  0.5530336903E+01  0.3024432475E-16 -0.3433051923E+01  0.6725244837E+15  0.5522122619E+01  0.3013782322E-16 -0.3428606188E+01
  0.1057046303E+01  0.1000000000E+01  0.4000000000E+00  0.4614735333E+01  0.5200110776E-17 -0.2962688064E+01  0.6725244837E+15  0.4600987448E+01  0.5125581321E-17 -0.2953033366E+01
  0.9429536967E+00  0.1000000000E+01  0.4000000000E+00  0.3718613804E+01 -0.1144806067E-16 -0.2743558570E+01  0.6725244837E+15  0.3701014263E+01 -0.1094250212E-16 -0.2723915125E+01
  0.8469889352E+00  0.1000000000E+01  0.4000000000E+00  0.3063557572E+01 -0.6626002654E-17 -0.2052142938E+01  0.6725244837E+15  0.3053950692E+01 -0.6770498401E-17 -0.2022484179E+01
  0.8000000000E+00  0.1000000000E+01  0.4000000000E+00  0.2734175822E+01 -0.1922383374E-17 -0.1895158105E+01  0.6725244837E+15  0.2730521700E+01 -0.1909349161E-17 -0.1861878576E+01
ZONE I=6, J=6, K=1, F=POINT
  0.1600000000E+01  0.1000000000E+01  0.0000000000E+00  0.1272701073E+00 -0.9332815788E-18 -0.7171586988E-01  0.6725244837E+15  0.1257364775E+00 -0.1049865290E-17 -0.7098043842E-01
  0.1553011065E+01  0.1000000000E+01  0.0000000000E+00  0.6882921360E-02 -0.1149006859E-17  0.4524940068E-01  0.6725244837E+15  0.5767899868E-02 -0.1116864684E-17  0.4518000021E-01
  0.1457046303E+01  0.1000000000E+01  0.0000000000E+00 -0.1036302252E-01 -0.2056120672E-19 -0.3148853757E-02  0.6725244837E+15 -0.1162107638E-01 -0.9809603177E-20 -0.3105773186E-02
  0.1342953697E+01  0.1000000000E+01  0.0000000000E+00  0.2543001622E-02  0.2508207707E-18  0.2984322136E-01  0.6725244837E+15  0.1523439914E-02  0.1938773297E-18  0.2976910352E-01
  0.1246988935E+01  0.1000000000E+01  0.0000000000E+00 -0.1033980310E-01  0.1106788987E-18 -0.8168007490E-02  0.6725244837E+15 -0.1106509528E-01  0.1162925510E-18 -0.8185153962E-02
  0.1200000000E+01  0.1000000000E+01  0.0000000000E+00  0.5534673663E-01  0.6018070267E-19  0.3687962954E-01  0.6725244837E+15  0.5479665225E-01  0.6054286819E-19  0.3652019543E-01
  0.1600000000E+01  0.1000000000E+01  0.4698893521E-01  0.2994762266E+01 -0.8738020756E-16  0.2295138756E+00  0.6725244837E+15  0.2985907693E+01 -0.8718845853E-16  0.2403027353E+00
  0.1553011065E+01  0.1000000000E+01  0.4698893521E-01  0.3509532788E+01 -0.4342767362E-16 -0.2736608722E+00  0.6725244837E+15  0.3502115573E+01 -0.4366226939E-16 -0.2647191802E+00
  0.1457046303E+01  0.1000000000E+01  0.4698893521E-01  0.2568442725E+01 -0.4203266128E-17 -0.9021740324E-01  0.6725244837E+15  0.2561695466E+01 -0.3987352056E-17 -0.8532811208E-01
  0.1342953697E+01  0.1000000000E+01  0.4698893521E-01  0.2586121908E+01  0.2858631757E-16 -0.7185240370E-01  0.6725244837E+15  0.2578329501E+01  0.2851901230E-16 -0.6830214758E-01
  0.1246988935E+01  0.1000000000E+01  0.4698893521E-01  0.2008578300E+01 -0.7121652997E-17 -0.4724635420E-01  0.6725244837E+15  0.2001014643E+01 -0.7438201345E-17 -0.3973252014E-01
  0.1200000000E+01  0.1000000000E+01  0.4698893521E-01  0.2372220554E+01 -0.4607159072E-16 -0.2281812926E+00  0.6725244837E+15  0.2365715829E+01 -0.4582262633E-16 -0.2189212426E+00
  0.1600000000E+01  0.1000000000E+01  0.1429536967E+00  0.6417068458E+01 -0.2663885474E-15 -0.1742413179E+01  0.6725244837E+15  0.6396364713E+01 -0.2665943521E-15 -0.1729060343E+01
  0.1553011065E+01  0.1000000000E+01  0.1429536967E+00  0.8145871986E+01 -0.1412413676E-15 -0.9089052934E+00  0.6725244837E+15  0.8143016744E+01 -0.1413909992E-15 -0.8978798783E+00
  0.1457046303E+01  0.1000000000E+01  0.1429536967E+00  0.6148393090E+01  0.3161466598E-16 -0.9090265881E+00  0.6725244837E+15  0.6147080575E+01  0.3135309314E-16 -0.9037679170E+00
  0.1342953697E+01  0.1000000000E+01  0.1429536967E+00  0.6141388192E+01  0.1004189548E-15 -0.2209488299E+00  0.6725244837E+15  0.6133193693E+01  0.1001400451E-15 -0.2194298229E+00
  0.1246988935E+01  0.1000000000E+01  0.1429536967E+00  0.4772089706E+01  0.2643122302E-16 -0.7909065005E+00  0.6725244837E+15  0.4762740284E+01  0.2729271197E-16 -0.7895254728E+00
  0.1200000000E+01  0.1000000000E+01  0.1429536967E+00  0.5481565192E+01 -0.6204359054E-16 -0.6609207610E+00  0.6725244837E+15  0.5470166040E+01 -0.6179033883E-16 -0.6609100256E+00
  0.1600000000E+01  0.1000000000E+01  0.2570463033E+00  0.1144963070E+02  0.1055952124E-15 -0.3500212967E+01  0.6725244837E+15  0.1145888467E+02  0.1055535520E-15 -0.3492813082E+01
  0.1553011065E+01  0.1000000000E+01  0.2570463033E+00  0.1041505163E+02  0.1280281592E-15 -0.2424170576E+01  0.6725244837E+15  0.1042261610E+02  0.1280520141E-15 -0.2415240635E+01
  0.1457046303E+01  0.1000000000E+01  0.2570463033E+00  0.9104014625E+01  0.1855520064E-15 -0.2337501923E+01  0.6725244837E+15  0.9106924815E+01  0.1856177100E-15 -0.2332979984E+01
  0.1342953697E+01  0.1000000000E+01  0.2570463033E+00  0.7490682788E+01  0.1325165082E-15 -0.1254639441E+01  0.6725244837E+15  0.7484899784E+01  0.1321730979E-15 -0.1249570240E+01
  0.1246988935E+01  0.1000000000E+01  0.2570463033E+00  0.6227493933E+01  0.4294707355E-16 -0.2029252931E+01  0.6725244837E+15  0.6218737070E+01  0.4260968679E-16 -0.2021084523E+01
  0.1200000000E+01  0.1000000000E+01  0.2570463033E+00  0.5781006595E+01 -0.5802660723E-17 -0.1798084981E+01  0.6725244837E+15  0.5774437591E+01 -0.5730228732E-17 -0.1791721434E+01
  0.1600000000E+01  0.1000000000E+01  0.3530110648E+00  0.1001797769E+02  0.2102601489E-15 -0.3951148397E+01  0.6725244837E+15  0.1002438309E+02  0.2101328440E-15 -0.3938594974E+01
  0.1553011065E+01  0.1000000000E+01  0.3530110648E+00  0.1024528991E+02  0.2128499697E-15 -0.3892874959E+01  0.6725244837E+15  0.1025753154E+02  0.2129119499E-15 -0.3882722276E+01
  0.1457046303E+01  0.1000000000E+01  0.3530110648E+00  0.9075381547E+01  0.1994663634E-15 -0.3529841089E+01  0.6725244837E+15  0.9080054003E+01  0.1995588890E-15 -0.3522767531E+01
  0.1342953697E+01  0.1000000000E+01  0.3530110648E+00  0.7792309582E+01  0.1492529094E-15 -0.2800317335E+01  0.6725244837E+15  0.7781738005E+01  0.1488477136E-15 -0.2790578700E+01
  0.1246988935E+01  0.1000000000E+01  0.3530110648E+00  0.6356515776E+01  0.6369432698E-16 -0.3024024971E+01  0.6725244837E+15  0.6342821884E+01  0.6407034312E-16 -0.3007035736E+01
  0.1200000000E+01  0.1000000000E+01  0.3530110648E+00  0.6223470171E+01  0.3323815533E-16 -0.2979154860E+01  0.6725244837E+15  0.6211981801E+01  0.3323050666E-16 -0.2960046979E+01
  0.1600000000E+01  0.1000000000E+01  0.4000000000E+00  0.1022991682E+02  0.2121951027E-15 -0.4649647863E+01  0.6725244837E+15  0.1024114466E+02  0.2120905101E-15 -0.4646408536E+01
  0.1553011065E+01  0.1000000000E+01  0.4000000000E+00  0.9601534780E+01  0.2249083064E-15 -0.3912457492E+01  0.6725244837E+15  0.9616531459E+01  0.2246550457E-15 -0.3905253577E+01
  0.1457046303E+01  0.1000000000E+01  0.4000000000E+00  0.9005207621E+01  0.1916016808E-15 -0.4073688893E+01  0.6725244837E+15  0.9009681471E+01  0.1915731948E-15 -0.4065577787E+01
  0.1342953697E+01  0.1000000000E+01  0.4000000000E+00  0.7576598514E+01  0.1562947427E-15 -0.3216242467E+01  0.6725244837E+15  0.7566114300E+01  0.1556603623E-15 -0.3211838817E+01
  0.1246988935E+01  0.1000000000E+01  0.4000000000E+00  0.6508413328E+01  0.6351320911E-16 -0.3603044804E+01  0.6725244837E+15  0.6492071070E+01  0.6379139030E-16 -0.3598789541E+01
  0.1200000000E+01  0.1000000000E+01  0.4000000000E+00  0.5881515995E+01  0.3852103048E-16 -0.3287990635E+01  0.6725244837E+15  0.5874296204E+01  0.3850801276E-16 -0.3287775246E+01
ZONE I=6, J=6, K=1, F=POINT
  0.2000000000E+01  0.1000000000E+01  0.0000000000E+00  0.2401636471E+01  0.7271392372E-19  0.2123363359E+02  0.6725244837E+15  0.2429259889E+01  0.9318097704E-19  0.2215453476E+02
  0.1953011065E+01  0.1000000000E+01  0.0000000000E+00  0.1288625540E+01 -0.3723996155E-16 -0.1378801284E+00  0.6725244837E+15  0.1291763650E+01 -0.3598013175E-16 -0.1513018821E+00
  0.1857046303E+01  0.1000000000E+01  0.0000000000E+00 -0.3105506410E+00 -0.1901848378E-16  0.1520730182E+00  0.6725244837E+15 -0.3122410620E+00 -0.1957024150E-16  0.1506582758E+00
  0.1742953697E+01  0.1000000000E+01  0.0000000000E+00  0.1311166895E+00  0.2073610287E-18 -0.3718902709E-01  0.6725244837E+15  0.1306491773E+00  0.8950922583E-19 -0.3687362731E-01
  0.1646988935E+01  0.1000000000E+01  0.0000000000E+00 -0.1305172504E+00  0.3234968518E-18  0.6052957801E-01  0.6725244837E+15 -0.1313967231E+00  0.2914493245E-18  0.5975326447E-01
  0.1600000000E+01  0.1000000000E+01  0.0000000000E+00  0.8554365744E-01 -0.1012126173E-17 -0.8377726377E-01  0.6725244837E+15  0.8391389672E-01 -0.1130095068E-17 -0.8168911944E-01
  0.2000000000E+01  0.1000000000E+01  0.4698893521E-01 -0.1313611398E-01  0.7502789682E-18  0.4847922037E+02  0.6725244837E+15 -0.5620016835E-01  0.6853529335E-18  0.4865343227E+02
  0.1953011065E+01  0.1000000000E+01  0.4698893521E-01  0.1095208486E+02  0.1355406364E-15  0.1456232468E+01  0.6725244837E+15  0.1093133754E+02  0.1342552388E-15  0.1465547465E+01
  0.1857046303E+01  0.1000000000E+01  0.4698893521E-01  0.1160574570E+02  0.2866691121E-15 -0.1906229759E+01  0.6725244837E+15  0.1159639883E+02  0.2861620173E-15 -0.1906531476E+01
  0.1742953697E+01  0.1000000000E+01  0.4698893521E-01  0.5711325746E+01 -0.4207248637E-16 -0.6551542459E+00  0.6725244837E+15  0.5705042571E+01 -0.4168996806E-16 -0.6507306192E+00
  0.1646988935E+01  0.1000000000E+01  0.4698893521E-01  0.4444071850E+01 -0.1212520038E-15 -0.6304131816E+00  0.6725244837E+15  0.4433053276E+01 -0.1208829436E-15 -0.6180094352E+00
  0.1600000000E+01  0.1000000000E+01  0.4698893521E-01  0.2830487696E+01 -0.8453209173E-16  0.2153768070E+00  0.6725244837E+15  0.2830886295E+01 -0.8416108508E-16  0.2208446216E+00
  0.2000000000E+01  0.1000000000E+01  0.1429536967E+00 -0.2819345030E+00  0.2724036941E-17  0.5049878783E+02  0.6725244837E+15 -0.2574910536E+00  0.2767280435E-17  0.5043518898E+02
  0.1953011065E+01  0.1000000000E+01  0.1429536967E+00  0.2780185008E+01 -0.5113946524E-15  0.1635013183E+02  0.6725244837E+15  0.2755323238E+01 -0.5123179969E-15  0.1637829988E+02
  0.1857046303E+01  0.1000000000E+01  0.1429536967E+00  0.1267596784E+02 -0.2626814002E-15 -0.3667594700E+01  0.6725244837E+15  0.1265181980E+02 -0.2614496183E-15 -0.3660850169E+01
  0.1742953697E+01  0.1000000000E+01  0.1429536967E+00  0.9950495843E+01 -0.3230428528E-16 -0.4058657817E+01  0.6725244837E+15  0.9934289650E+01 -0.3437593830E-16 -0.4045669423E+01
  0.1646988935E+01  0.1000000000E+01  0.1429536967E+00  0.9356191765E+01 -0.1605192287E-15 -0.2008091901E+01  0.6725244837E+15  0.9347357745E+01 -0.1604023772E-15 -0.1990861968E+01
  0.1600000000E+01  0.1000000000E+01  0.1429536967E+00  0.6044770053E+01 -0.2830023686E-15 -0.1742663032E+01  0.6725244837E+15  0.6065074459E+01 -0.2835451404E-15 -0.1733721758E+01
  0.2000000000E+01  0.1000000000E+01  0.2570463033E+00  0.1885129656E-01  0.1131304324E-17  0.4986852584E+02  0.6725244837E+15  0.1787226062E-01  0.1102622665E-17  0.4987334080E+02