  TITLE = "Generic solution"                                                                                                         
  VARIABLES = "x","y","z","Q1","Q2","Q3"                                                                                             
 ZONE I=           7 ,J=           7 ,K=           7 , F=POINT
 -0.10000E+01 -0.10000E+01 -0.97280E-16  0.10000E+01  0.10000E+01 -0.29247E-14
 -0.83333E+00 -0.10000E+01  0.33800E-16  0.10000E+01  0.10000E+01  0.67420E-13
 -0.66667E+00 -0.10000E+01  0.98459E-16  0.10000E+01  0.10000E+01  0.51400E-13
 -0.50000E+00 -0.10000E+01  0.19326E-16  0.10000E+01  0.10000E+01 -0.31704E-14
 -0.33333E+00 -0.10000E+01  0.67315E-16  0.10000E+01  0.10000E+01 -0.31489E-13
 -0.16667E+00 -0.10000E+01 -0.27878E-16  0.10000E+01  0.10000E+01 -0.58676E-14
 -0.22687E-16 -0.10000E+01 -0.57246E-16  0.10000E+01  0.10000E+01  0.10169E-13
 -0.10000E+01 -0.83333E+00 -0.16634E-16  0.10000E+01  0.10000E+01 -0.91139E-14
 -0.83333E+00 -0.83333E+00  0.15512E-16  0.10000E+01  0.10000E+01  0.23811E-13
 -0.66667E+00 -0.83333E+00  0.11579E-15  0.10000E+01  0.10000E+01 -0.15555E-13
 -0.50000E+00 -0.83333E+00  0.30744E-16  0.10000E+01  0.10000E+01 -0.36126E-13
 -0.33333E+00 -0.83333E+00  0.11868E-15  0.10000E+01  0.10000E+01 -0.23309E-13
 -0.16667E+00 -0.83333E+00 -0.31011E-16  0.10000E+01  0.10000E+01  0.14782E-15
 -0.47285E-16 -0.83333E+00  0.17781E-16  0.10000E+01  0.10000E+01  0.13309E-13
 -0.10000E+01 -0.66667E+00  0.49507E-16  0.10000E+01  0.10000E+01 -0.94275E-14
 -0.83333E+00 -0.66667E+00  0.57589E-16  0.10000E+01  0.10000E+01  0.92737E-14
 -0.66667E+00 -0.66667E+00 -0.18137E-15  0.10000E+01  0.10000E+01 -0.30875E-13
 -0.50000E+00 -0.66667E+00  0.29809E-16  0.10000E+01  0.10000E+01 -0.37167E-13
 -0.33333E+00 -0.66667E+00 -0.58306E-16  0.10000E+01  0.10000E+01 -0.14722E-13
 -0.16667E+00 -0.66667E+00  0.29783E-16  0.10000E+01  0.10000E+01  0.65766E-15
 -0.15209E-15 -0.66667E+00 -0.85001E-16  0.10000E+01  0.10000E+01  0.96259E-14
 -0.10000E+01 -0.50000E+00 -0.15089E-15  0.10000E+01  0.10000E+01 -0.66201E-14
 -0.83333E+00 -0.50000E+00 -0.19177E-17  0.10000E+01  0.10000E+01  0.65525E-14
 -0.66667E+00 -0.50000E+00  0.12190E-16  0.10000E+01  0.10000E+01 -0.20839E-13
 -0.50000E+00 -0.50000E+00 -0.54129E-16  0.10000E+01  0.10000E+01 -0.23755E-13
 -0.33333E+00 -0.50000E+00  0.47664E-16  0.10000E+01  0.10000E+01 -0.80410E-14
 -0.16667E+00 -0.50000E+00  0.86533E-17  0.10000E+01  0.10000E+01 -0.97598E-16
 -0.11058E-15 -0.50000E+00 -0.73726E-17  0.10000E+01  0.10000E+01  0.34390E-14
 -0.10000E+01 -0.33333E+00  0.56419E-16  0.10000E+01  0.10000E+01 -0.29796E-14
 -0.83333E+00 -0.33333E+00 -0.65968E-16  0.10000E+01  0.10000E+01  0.27069E-14
 -0.66667E+00 -0.33333E+00 -0.46123E-16  0.10000E+01  0.10000E+01 -0.89958E-14
 -0.50000E+00 -0.33333E+00  0.21047E-16  0.10000E+01  0.10000E+01 -0.88558E-14
 -0.33333E+00 -0.33333E+00  0.13314E-15  0.10000E+01  0.10000E+01 -0.13060E-14
 -0.16667E+00 -0.33333E+00  0.13272E-15  0.10000E+01  0.10000E+01  0.17288E-15
 -0.13890E-15 -0.33333E+00 -0.92374E-16  0.10000E+01  0.10000E+01 -0.23316E-14
 -0.10000E+01 -0.16667E+00 -0.23080E-16  0.10000E+01  0.10000E+01 -0.48998E-15
 -0.83333E+00 -0.16667E+00 -0.10129E-15  0.10000E+01  0.10000E+01 -0.33351E-14
 -0.66667E+00 -0.16667E+00  0.85517E-16  0.10000E+01  0.10000E+01 -0.38873E-14
 -0.50000E+00 -0.16667E+00 -0.79567E-16  0.10000E+01  0.10000E+01  0.23321E-14
 -0.33333E+00 -0.16667E+00  0.14672E-15  0.10000E+01  0.10000E+01  0.66784E-14
 -0.16667E+00 -0.16667E+00  0.53300E-16  0.10000E+01  0.10000E+01  0.12921E-14
 -0.23458E-15 -0.16667E+00 -0.21738E-15  0.10000E+01  0.10000E+01 -0.69918E-14
 -0.10000E+01 -0.29463E-16 -0.11536E-15  0.10000E+01  0.10000E+01 -0.99567E-15
 -0.83333E+00 -0.46854E-16 -0.11072E-16  0.10000E+01  0.10000E+01  0.67730E-14
 -0.66667E+00 -0.16733E-15  0.56379E-17  0.10000E+01  0.10000E+01  0.13233E-13
 -0.50000E+00 -0.72953E-16 -0.13054E-15  0.10000E+01  0.10000E+01  0.15644E-13
 -0.33333E+00 -0.98432E-16 -0.20340E-15  0.10000E+01  0.10000E+01  0.11300E-13
 -0.16667E+00 -0.25426E-15 -0.11785E-15  0.10000E+01  0.10000E+01  0.97028E-16
  0.27756E-16  0.70256E-16 -0.19429E-15  0.10000E+01  0.10000E+01 -0.12897E-13
 -0.10000E+01 -0.10000E+01  0.16667E+00  0.10000E+01  0.10000E+01  0.13463E-13
 -0.83333E+00 -0.10000E+01  0.16667E+00  0.10000E+01  0.10000E+01  0.16644E-12
 -0.66667E+00 -0.10000E+01  0.16667E+00  0.10000E+01  0.10000E+01 -0.17291E-13
 -0.50000E+00 -0.10000E+01  0.16667E+00  0.10000E+01  0.10000E+01 -0.11458E-12
 -0.33333E+00 -0.10000E+01  0.16667E+00  0.10000E+01  0.10000E+01 -0.67256E-13
 -0.16667E+00 -0.10000E+01  0.16667E+00  0.10000E+01  0.10000E+01  0.13618E-13
 -0.10985E-15 -0.10000E+01  0.16667E+00  0.10000E+01  0.10000E+01  0.43401E-13
 -0.10000E+01 -0.83333E+00  0.16667E+00  0.10000E+01  0.10000E+01 -0.17185E-13
 -0.83333E+00 -0.83333E+00  0.16667E+00  0.10000E+01  0.10000E+01  0.15180E-12
 -0.66667E+00 -0.83333E+00  0.16667E+00  0.10000E+01  0.10000E+01  0.35945E-13
 -0.50000E+00 -0.83333E+00  0.16667E+00  0.10000E+01  0.10000E+01 -0.16705E-12
 -0.33333E+00 -0.83333E+00  0.16667E+00  0.10000E+01  0.10000E+01 -0.21160E-12
 -0.16667E+00 -0.83333E+00  0.16667E+00  0.10000E+01  0.10000E+01 -0.13012E-13
 -0.14422E-15 -0.83333E+00  0.16667E+00  0.10000E+01  0.10000E+01  0.14374E-12
 -0.10000E+01 -0.66667E+00  0.16667E+00  0.10000E+01  0.10000E+01  0.51371E-14
 -0.83333E+00 -0.66667E+00  0.16667E+00  0.10000E+01  0.10000E+01  0.95488E-13
 -0.66667E+00 -0.66667E+00  0.16667E+00  0.10000E+01  0.10000E+01  0.70237E-13
 -0.50000E+00 -0.66667E+00  0.16667E+00  0.10000E+01  0.10000E+01 -0.16443E-12
 -0.33333E+00 -0.66667E+00  0.16667E+00  0.10000E+01  0.10000E+01 -0.28736E-12
 -0.16667E+00 -0.66667E+00  0.16667E+00  0.10000E+01  0.10000E+01 -0.56031E-13
 -0.84072E-16 -0.66667E+00  0.16667E+00  0.10000E+01  0.10000E+01  0.19987E-12
 -0.10000E+01 -0.50000E+00  0.16667E+00  0.10000E+01  0.10000E+01  0.22121E-13
 -0.83333E+00 -0.50000E+00  0.16667E+00  0.10000E+01  0.10000E+01  0.40522E-13
 -0.66667E+00 -0.50000E+00  0.16667E+00  0.10000E+01  0.10000E+01  0.51121E-13
 -0.50000E+00 -0.50000E+00  0.16667E+00  0.10000E+01  0.10000E+01 -0.13007E-12
 -0.33333E+00 -0.50000E+00  0.16667E+00  0.10000E+01  0.10000E+01 -0.24252E-12
 -0.16667E+00 -0.50000E+00  0.16667E+00  0.10000E+01  0.10000E+01 -0.55604E-13
 -0.11525E-15 -0.50000E+00  0.16667E+00  0.10000E+01  0.10000E+01  0.15691E-12
 -0.10000E+01 -0.33333E+00  0.16667E+00  0.10000E+01  0.10000E+01  0.21241E-13
 -0.83333E+00 -0.33333E+00  0.16667E+00  0.10000E+01  0.10000E+01  0.13268E-14
 -0.66667E+00 -0.33333E+00  0.16667E+00  0.10000E+01  0.10000E+01  0.18444E-13
 -0.50000E+00 -0.33333E+00  0.16667E+00  0.10000E+01  0.10000E+01 -0.77708E-13
 -0.33333E+00 -0.33333E+00  0.16667E+00  0.10000E+01  0.10000E+01 -0.13781E-12
 -0.16667E+00 -0.33333E+00  0.16667E+00  0.10000E+01  0.10000E+01 -0.24204E-13
 -0.93959E-16 -0.33333E+00  0.16667E+00  0.10000E+01  0.10000E+01  0.77843E-13
 -0.10000E+01 -0.16667E+00  0.16667E+00  0.10000E+01  0.10000E+01  0.12867E-13
 -0.83333E+00 -0.16667E+00  0.16667E+00  0.10000E+01  0.10000E+01 -0.20094E-13
 -0.66667E+00 -0.16667E+00  0.16667E+00  0.10000E+01  0.10000E+01  0.58274E-14
 -0.50000E+00 -0.16667E+00  0.16667E+00  0.10000E+01  0.10000E+01 -0.25289E-13
 -0.33333E+00 -0.16667E+00  0.16667E+00  0.10000E+01  0.10000E+01 -0.47865E-13
 -0.16667E+00 -0.16667E+00  0.16667E+00  0.10000E+01  0.10000E+01  0.71243E-14
 -0.11622E-15 -0.16667E+00  0.16667E+00  0.10000E+01  0.10000E+01  0.34094E-13
 -0.10000E+01 -0.11180E-15  0.16667E+00  0.10000E+01  0.10000E+01  0.73766E-14
 -0.83333E+00 -0.16710E-15  0.16667E+00  0.10000E+01  0.10000E+01 -0.17963E-13
 -0.66667E+00 -0.11220E-15  0.16667E+00  0.10000E+01  0.10000E+01 -0.39866E-13
 -0.50000E+00 -0.12329E-15  0.16667E+00  0.10000E+01  0.10000E+01 -0.88454E-14
 -0.33333E+00 -0.11354E-15  0.16667E+00  0.10000E+01  0.10000E+01  0.37654E-13
 -0.16667E+00 -0.12947E-15  0.16667E+00  0.10000E+01  0.10000E+01  0.42495E-13
 -0.97809E-16 -0.15240E-15  0.16667E+00  0.10000E+01  0.10000E+01 -0.39005E-14
 -0.10000E+01 -0.10000E+01  0.33333E+00  0.10000E+01  0.10000E+01  0.11075E-14
 -0.83333E+00 -0.10000E+01  0.33333E+00  0.10000E+01  0.10000E+01  0.15574E-12
 -0.66667E+00 -0.10000E+01  0.33333E+00  0.10000E+01  0.10000E+01 -0.15884E-12
 -0.50000E+00 -0.10000E+01  0.33333E+00  0.10000E+01  0.10000E+01 -0.22647E-12
 -0.33333E+00 -0.10000E+01  0.33333E+00  0.10000E+01  0.10000E+01 -0.71478E-13
 -0.16667E+00 -0.10000E+01  0.33333E+00  0.10000E+01  0.10000E+01  0.38201E-13
  0.50382E-16 -0.10000E+01  0.33333E+00  0.10000E+01  0.10000E+01  0.87871E-13
 -0.10000E+01 -0.83333E+00  0.33333E+00  0.10000E+01  0.10000E+01 -0.41745E-13
 -0.83333E+00 -0.83333E+00  0.33333E+00  0.10000E+01  0.10000E+01  0.86260E-13
 -0.66667E+00 -0.83333E+00  0.33333E+00  0.10000E+01  0.10000E+01 -0.10899E-12
 -0.50000E+00 -0.83333E+00  0.33333E+00  0.10000E+01  0.10000E+01 -0.25120E-12
 -0.33333E+00 -0.83333E+00  0.33333E+00  0.10000E+01  0.10000E+01 -0.21154E-12
 -0.16667E+00 -0.83333E+00  0.33333E+00  0.10000E+01  0.10000E+01 -0.32097E-13
 -0.93455E-16 -0.83333E+00  0.33333E+00  0.10000E+01  0.10000E+01  0.15074E-12
 -0.10000E+01 -0.66667E+00  0.33333E+00  0.10000E+01  0.10000E+01  0.33501E-14
 -0.83333E+00 -0.66667E+00  0.33333E+00  0.10000E+01  0.10000E+01  0.64025E-15
 -0.66667E+00 -0.66667E+00  0.33333E+00  0.10000E+01  0.10000E+01 -0.16611E-13
 -0.50000E+00 -0.66667E+00  0.33333E+00  0.10000E+01  0.10000E+01 -0.19029E-12
 -0.33333E+00 -0.66667E+00  0.33333E+00  0.10000E+01  0.10000E+01 -0.29877E-12
 -0.16667E+00 -0.66667E+00  0.33333E+00  0.10000E+01  0.10000E+01 -0.12581E-12
 -0.14611E-15 -0.66667E+00  0.33333E+00  0.10000E+01  0.10000E+01  0.17063E-12
 -0.10000E+01 -0.50000E+00  0.33333E+00  0.10000E+01  0.10000E+01  0.31350E-13
 -0.83333E+00 -0.50000E+00  0.33333E+00  0.10000E+01  0.10000E+01 -0.52633E-13
 -0.66667E+00 -0.50000E+00  0.33333E+00  0.10000E+01  0.10000E+01 -0.13462E-14
 -0.50000E+00 -0.50000E+00  0.33333E+00  0.10000E+01  0.10000E+01 -0.11704E-12
 -0.33333E+00 -0.50000E+00  0.33333E+00  0.10000E+01  0.10000E+01 -0.23821E-12
 -0.16667E+00 -0.50000E+00  0.33333E+00  0.10000E+01  0.10000E+01 -0.13264E-12
 -0.51249E-16 -0.50000E+00  0.33333E+00  0.10000E+01  0.10000E+01  0.10948E-12
 -0.10000E+01 -0.33333E+00  0.33333E+00  0.10000E+01  0.10000E+01  0.27982E-13
 -0.83333E+00 -0.33333E+00  0.33333E+00  0.10000E+01  0.10000E+01 -0.66755E-13
 -0.66667E+00 -0.33333E+00  0.33333E+00  0.10000E+01  0.10000E+01 -0.89839E-14
 -0.50000E+00 -0.33333E+00  0.33333E+00  0.10000E+01  0.10000E+01 -0.40582E-13
 -0.33333E+00 -0.33333E+00  0.33333E+00  0.10000E+01  0.10000E+01 -0.11037E-12
 -0.16667E+00 -0.33333E+00  0.33333E+00  0.10000E+01  0.10000E+01 -0.88160E-13
 -0.79906E-16 -0.33333E+00  0.33333E+00  0.10000E+01  0.10000E+01  0.21184E-13
 -0.10000E+01 -0.16667E+00  0.33333E+00  0.10000E+01  0.10000E+01  0.18593E-13
 -0.83333E+00 -0.16667E+00  0.33333E+00  0.10000E+01  0.10000E+01 -0.55318E-13
 -0.66667E+00 -0.16667E+00  0.33333E+00  0.10000E+01  0.10000E+01  0.19814E-13
 -0.50000E+00 -0.16667E+00  0.33333E+00  0.10000E+01  0.10000E+01  0.34758E-13
 -0.33333E+00 -0.16667E+00  0.33333E+00  0.10000E+01  0.10000E+01 -0.16397E-13
 -0.16667E+00 -0.16667E+00  0.33333E+00  0.10000E+01  0.10000E+01 -0.54101E-13
 -0.14852E-15 -0.16667E+00  0.33333E+00  0.10000E+01  0.10000E+01 -0.31210E-13
 -0.10000E+01  0.22951E-16  0.33333E+00  0.10000E+01  0.10000E+01  0.17004E-13
 -0.83333E+00 -0.10927E-15  0.33333E+00  0.10000E+01  0.10000E+01 -0.31022E-13
 -0.66667E+00 -0.20943E-15  0.33333E+00  0.10000E+01  0.10000E+01 -0.19218E-13
 -0.50000E+00 -0.73136E-16  0.33333E+00  0.10000E+01  0.10000E+01  0.49961E-13
 -0.33333E+00 -0.94027E-16  0.33333E+00  0.10000E+01  0.10000E+01  0.76712E-13
 -0.16667E+00 -0.14933E-15  0.33333E+00  0.10000E+01  0.10000E+01  0.13319E-14
  0.61583E-16  0.64618E-16  0.33333E+00  0.10000E+01  0.10000E+01 -0.58329E-13
 -0.10000E+01 -0.10000E+01  0.50000E+00  0.10000E+01  0.10000E+01 -0.98900E-14
 -0.83333E+00 -0.10000E+01  0.50000E+00  0.10000E+01  0.10000E+01  0.14320E-12
 -0.66667E+00 -0.10000E+01  0.50000E+00  0.10000E+01  0.10000E+01 -0.26900E-12
 -0.50000E+00 -0.10000E+01  0.50000E+00  0.10000E+01  0.10000E+01 -0.30567E-12
 -0.33333E+00 -0.10000E+01  0.50000E+00  0.10000E+01  0.10000E+01 -0.68392E-13
 -0.16667E+00 -0.10000E+01  0.50000E+00  0.10000E+01  0.10000E+01  0.49325E-13
 -0.96047E-16 -0.10000E+01  0.50000E+00  0.10000E+01  0.10000E+01  0.11255E-12
 -0.10000E+01 -0.83333E+00  0.50000E+00  0.10000E+01  0.10000E+01 -0.69726E-13
 -0.83333E+00 -0.83333E+00  0.50000E+00  0.10000E+01  0.10000E+01  0.38981E-13
 -0.66667E+00 -0.83333E+00  0.50000E+00  0.10000E+01  0.10000E+01 -0.23318E-12
 -0.50000E+00 -0.83333E+00  0.50000E+00  0.10000E+01  0.10000E+01 -0.31010E-12
 -0.33333E+00 -0.83333E+00  0.50000E+00  0.10000E+01  0.10000E+01 -0.18925E-12
 -0.16667E+00 -0.83333E+00  0.50000E+00  0.10000E+01  0.10000E+01 -0.50374E-13
 -0.11556E-15 -0.83333E+00  0.50000E+00  0.10000E+01  0.10000E+01  0.13584E-12
 -0.10000E+01 -0.66667E+00  0.50000E+00  0.10000E+01  0.10000E+01 -0.13814E-13
 -0.83333E+00 -0.66667E+00  0.50000E+00  0.10000E+01  0.10000E+01 -0.68377E-13
 -0.66667E+00 -0.66667E+00  0.50000E+00  0.10000E+01  0.10000E+01 -0.11475E-12
 -0.50000E+00 -0.66667E+00  0.50000E+00  0.10000E+01  0.10000E+01 -0.21005E-12
 -0.33333E+00 -0.66667E+00  0.50000E+00  0.10000E+01  0.10000E+01 -0.26977E-12
 -0.16667E+00 -0.66667E+00  0.50000E+00  0.10000E+01  0.10000E+01 -0.17479E-12
 -0.95772E-16 -0.66667E+00  0.50000E+00  0.10000E+01  0.10000E+01  0.12148E-12
 -0.10000E+01 -0.50000E+00  0.50000E+00  0.10000E+01  0.10000E+01  0.21911E-13
 -0.83333E+00 -0.50000E+00  0.50000E+00  0.10000E+01  0.10000E+01 -0.11965E-12
 -0.66667E+00 -0.50000E+00  0.50000E+00  0.10000E+01  0.10000E+01 -0.74412E-13
 -0.50000E+00 -0.50000E+00  0.50000E+00  0.10000E+01  0.10000E+01 -0.10428E-12
 -0.33333E+00 -0.50000E+00  0.50000E+00  0.10000E+01  0.10000E+01 -0.18874E-12
 -0.16667E+00 -0.50000E+00  0.50000E+00  0.10000E+01  0.10000E+01 -0.17917E-12
 -0.78510E-16 -0.50000E+00  0.50000E+00  0.10000E+01  0.10000E+01  0.46962E-13
 -0.10000E+01 -0.33333E+00  0.50000E+00  0.10000E+01  0.10000E+01  0.19403E-13
 -0.83333E+00 -0.33333E+00  0.50000E+00  0.10000E+01  0.10000E+01 -0.11326E-12
 -0.66667E+00 -0.33333E+00  0.50000E+00  0.10000E+01  0.10000E+01 -0.54358E-13
 -0.50000E+00 -0.33333E+00  0.50000E+00  0.10000E+01  0.10000E+01 -0.36052E-14
 -0.33333E+00 -0.33333E+00  0.50000E+00  0.10000E+01  0.10000E+01 -0.40884E-13
 -0.16667E+00 -0.33333E+00  0.50000E+00  0.10000E+01  0.10000E+01 -0.11698E-12
 -0.98581E-16 -0.33333E+00  0.50000E+00  0.10000E+01  0.10000E+01 -0.44303E-13
 -0.10000E+01 -0.16667E+00  0.50000E+00  0.10000E+01  0.10000E+01  0.11923E-13
 -0.83333E+00 -0.16667E+00  0.50000E+00  0.10000E+01  0.10000E+01 -0.76089E-13
 -0.66667E+00 -0.16667E+00  0.50000E+00  0.10000E+01  0.10000E+01  0.12292E-13
 -0.50000E+00 -0.16667E+00  0.50000E+00  0.10000E+01  0.10000E+01  0.91260E-13
 -0.33333E+00 -0.16667E+00  0.50000E+00  0.10000E+01  0.10000E+01  0.55052E-13
 -0.16667E+00 -0.16667E+00  0.50000E+00  0.10000E+01  0.10000E+01 -0.74383E-13
 -0.15029E-15 -0.16667E+00  0.50000E+00  0.10000E+01  0.10000E+01 -0.99723E-13
 -0.10000E+01 -0.11074E-15  0.50000E+00  0.10000E+01  0.10000E+01  0.17454E-13
 -0.83333E+00 -0.96683E-16  0.50000E+00  0.10000E+01  0.10000E+01 -0.34408E-13
 -0.66667E+00 -0.86977E-16  0.50000E+00  0.10000E+01  0.10000E+01 -0.80084E-14
 -0.50000E+00 -0.14378E-15  0.50000E+00  0.10000E+01  0.10000E+01  0.11200E-12
 -0.33333E+00 -0.81098E-16  0.50000E+00  0.10000E+01  0.10000E+01  0.14815E-12
 -0.16667E+00 -0.11473E-15  0.50000E+00  0.10000E+01  0.10000E+01 -0.47320E-14
 -0.43802E-16 -0.28189E-16  0.50000E+00  0.10000E+01  0.10000E+01 -0.11426E-12
 -0.10000E+01 -0.10000E+01  0.66667E+00  0.10000E+01  0.10000E+01 -0.13476E-13
 -0.83333E+00 -0.10000E+01  0.66667E+00  0.10000E+01  0.10000E+01  0.13585E-12
 -0.66667E+00 -0.10000E+01  0.66667E+00  0.10000E+01  0.10000E+01 -0.33093E-12
 -0.50000E+00 -0.10000E+01  0.66667E+00  0.10000E+01  0.10000E+01 -0.34428E-12
 -0.33333E+00 -0.10000E+01  0.66667E+00  0.10000E+01  0.10000E+01 -0.60809E-13
 -0.16667E+00 -0.10000E+01  0.66667E+00  0.10000E+01  0.10000E+01  0.48649E-13
 -0.31293E-16 -0.10000E+01  0.66667E+00  0.10000E+01  0.10000E+01  0.11096E-12
 -0.10000E+01 -0.83333E+00  0.66667E+00  0.10000E+01  0.10000E+01 -0.81939E-13
 -0.83333E+00 -0.83333E+00  0.66667E+00  0.10000E+01  0.10000E+01  0.10629E-13
 -0.66667E+00 -0.83333E+00  0.66667E+00  0.10000E+01  0.10000E+01 -0.28756E-12
 -0.50000E+00 -0.83333E+00  0.66667E+00  0.10000E+01  0.10000E+01 -0.32921E-12
 -0.33333E+00 -0.83333E+00  0.66667E+00  0.10000E+01  0.10000E+01 -0.18168E-12
 -0.16667E+00 -0.83333E+00  0.66667E+00  0.10000E+01  0.10000E+01 -0.80792E-13
 -0.10887E-15 -0.83333E+00  0.66667E+00  0.10000E+01  0.10000E+01  0.11530E-12
 -0.10000E+01 -0.66667E+00  0.66667E+00  0.10000E+01  0.10000E+01 -0.18725E-13
 -0.83333E+00 -0.66667E+00  0.66667E+00  0.10000E+01  0.10000E+01 -0.11688E-12
 -0.66667E+00 -0.66667E+00  0.66667E+00  0.10000E+01  0.10000E+01 -0.15540E-12
 -0.50000E+00 -0.66667E+00  0.66667E+00  0.10000E+01  0.10000E+01 -0.20050E-12
 -0.33333E+00 -0.66667E+00  0.66667E+00  0.10000E+01  0.10000E+01 -0.25437E-12
 -0.16667E+00 -0.66667E+00  0.66667E+00  0.10000E+01  0.10000E+01 -0.22880E-12
 -0.10789E-15 -0.66667E+00  0.66667E+00  0.10000E+01  0.10000E+01  0.81200E-13
 -0.10000E+01 -0.50000E+00  0.66667E+00  0.10000E+01  0.10000E+01  0.21370E-13
 -0.83333E+00 -0.50000E+00  0.66667E+00  0.10000E+01  0.10000E+01 -0.17023E-12
 -0.66667E+00 -0.50000E+00  0.66667E+00  0.10000E+01  0.10000E+01 -0.10454E-12
 -0.50000E+00 -0.50000E+00  0.66667E+00  0.10000E+01  0.10000E+01 -0.68584E-13
 -0.33333E+00 -0.50000E+00  0.66667E+00  0.10000E+01  0.10000E+01 -0.14570E-12
 -0.16667E+00 -0.50000E+00  0.66667E+00  0.10000E+01  0.10000E+01 -0.22399E-12
 -0.46675E-16 -0.50000E+00  0.66667E+00  0.10000E+01  0.10000E+01 -0.46980E-14
 -0.10000E+01 -0.33333E+00  0.66667E+00  0.10000E+01  0.10000E+01  0.17461E-13
 -0.83333E+00 -0.33333E+00  0.66667E+00  0.10000E+01  0.10000E+01 -0.14911E-12
 -0.66667E+00 -0.33333E+00  0.66667E+00  0.10000E+01  0.10000E+01 -0.71103E-13
 -0.50000E+00 -0.33333E+00  0.66667E+00  0.10000E+01  0.10000E+01  0.51502E-13
 -0.33333E+00 -0.33333E+00  0.66667E+00  0.10000E+01  0.10000E+01  0.31530E-13
 -0.16667E+00 -0.33333E+00  0.66667E+00  0.10000E+01  0.10000E+01 -0.13525E-12
 -0.92266E-16 -0.33333E+00  0.66667E+00  0.10000E+01  0.10000E+01 -0.99971E-13
 -0.10000E+01 -0.16667E+00  0.66667E+00  0.10000E+01  0.10000E+01  0.80012E-14
 -0.83333E+00 -0.16667E+00  0.66667E+00  0.10000E+01  0.10000E+01 -0.91333E-13
 -0.66667E+00 -0.16667E+00  0.66667E+00  0.10000E+01  0.10000E+01  0.14865E-13
 -0.50000E+00 -0.16667E+00  0.66667E+00  0.10000E+01  0.10000E+01  0.15803E-12
 -0.33333E+00 -0.16667E+00  0.66667E+00  0.10000E+01  0.10000E+01  0.14019E-12
 -0.16667E+00 -0.16667E+00  0.66667E+00  0.10000E+01  0.10000E+01 -0.72345E-13
 -0.11490E-15 -0.16667E+00  0.66667E+00  0.10000E+01  0.10000E+01 -0.15529E-12
 -0.10000E+01 -0.60160E-16  0.66667E+00  0.10000E+01  0.10000E+01  0.16211E-13
 -0.83333E+00 -0.13514E-15  0.66667E+00  0.10000E+01  0.10000E+01 -0.34869E-13
 -0.66667E+00 -0.13863E-15  0.66667E+00  0.10000E+01  0.10000E+01  0.14464E-14
 -0.50000E+00  0.10734E-16  0.66667E+00  0.10000E+01  0.10000E+01  0.18045E-12
 -0.33333E+00 -0.13048E-15  0.66667E+00  0.10000E+01  0.10000E+01  0.24040E-12
 -0.16667E+00 -0.10841E-15  0.66667E+00  0.10000E+01  0.10000E+01  0.13465E-13
  0.18215E-16  0.99747E-17  0.66667E+00  0.10000E+01  0.10000E+01 -0.16328E-12
 -0.10000E+01 -0.10000E+01  0.83333E+00  0.10000E+01  0.10000E+01 -0.14571E-13
 -0.83333E+00 -0.10000E+01  0.83333E+00  0.10000E+01  0.10000E+01  0.11822E-12
 -0.66667E+00 -0.10000E+01  0.83333E+00  0.10000E+01  0.10000E+01 -0.35729E-12
 -0.50000E+00 -0.10000E+01  0.83333E+00  0.10000E+01  0.10000E+01 -0.34618E-12
 -0.33333E+00 -0.10000E+01  0.83333E+00  0.10000E+01  0.10000E+01 -0.45012E-13
 -0.16667E+00 -0.10000E+01  0.83333E+00  0.10000E+01  0.10000E+01  0.42274E-13
 -0.17457E-15 -0.10000E+01  0.83333E+00  0.10000E+01  0.10000E+01  0.88450E-13
 -0.10000E+01 -0.83333E+00  0.83333E+00  0.10000E+01  0.10000E+01 -0.75490E-13
 -0.83333E+00 -0.83333E+00  0.83333E+00  0.10000E+01  0.10000E+01 -0.39745E-13
 -0.66667E+00 -0.83333E+00  0.83333E+00  0.10000E+01  0.10000E+01 -0.30260E-12
 -0.50000E+00 -0.83333E+00  0.83333E+00  0.10000E+01  0.10000E+01 -0.30219E-12
 -0.33333E+00 -0.83333E+00  0.83333E+00  0.10000E+01  0.10000E+01 -0.16617E-12
 -0.16667E+00 -0.83333E+00  0.83333E+00  0.10000E+01  0.10000E+01 -0.12502E-12
 -0.11681E-15 -0.83333E+00  0.83333E+00  0.10000E+01  0.10000E+01  0.74598E-13
 -0.10000E+01 -0.66667E+00  0.83333E+00  0.10000E+01  0.10000E+01 -0.25997E-14
 -0.83333E+00 -0.66667E+00  0.83333E+00  0.10000E+01  0.10000E+01 -0.18571E-12
 -0.66667E+00 -0.66667E+00  0.83333E+00  0.10000E+01  0.10000E+01 -0.15130E-12
 -0.50000E+00 -0.66667E+00  0.83333E+00  0.10000E+01  0.10000E+01 -0.13622E-12
 -0.33333E+00 -0.66667E+00  0.83333E+00  0.10000E+01  0.10000E+01 -0.22497E-12
 -0.16667E+00 -0.66667E+00  0.83333E+00  0.10000E+01  0.10000E+01 -0.29799E-12
 -0.74040E-16 -0.66667E+00  0.83333E+00  0.10000E+01  0.10000E+01  0.20047E-13
 -0.10000E+01 -0.50000E+00  0.83333E+00  0.10000E+01  0.10000E+01  0.38676E-13
 -0.83333E+00 -0.50000E+00  0.83333E+00  0.10000E+01  0.10000E+01 -0.23511E-12
 -0.66667E+00 -0.50000E+00  0.83333E+00  0.10000E+01  0.10000E+01 -0.89299E-13
 -0.50000E+00 -0.50000E+00  0.83333E+00  0.10000E+01  0.10000E+01  0.21044E-13
 -0.33333E+00 -0.50000E+00  0.83333E+00  0.10000E+01  0.10000E+01 -0.87838E-13
 -0.16667E+00 -0.50000E+00  0.83333E+00  0.10000E+01  0.10000E+01 -0.28364E-12
 -0.12256E-15 -0.50000E+00  0.83333E+00  0.10000E+01  0.10000E+01 -0.73233E-13
 -0.10000E+01 -0.33333E+00  0.83333E+00  0.10000E+01  0.10000E+01  0.29178E-13
 -0.83333E+00 -0.33333E+00  0.83333E+00  0.10000E+01  0.10000E+01 -0.19276E-12
 -0.66667E+00 -0.33333E+00  0.83333E+00  0.10000E+01  0.10000E+01 -0.48089E-13
 -0.50000E+00 -0.33333E+00  0.83333E+00  0.10000E+01  0.10000E+01  0.15187E-12
 -0.33333E+00 -0.33333E+00  0.83333E+00  0.10000E+01  0.10000E+01  0.11585E-12
 -0.16667E+00 -0.33333E+00  0.83333E+00  0.10000E+01  0.10000E+01 -0.16664E-12
 -0.11702E-15 -0.33333E+00  0.83333E+00  0.10000E+01  0.10000E+01 -0.16445E-12
 -0.10000E+01 -0.16667E+00  0.83333E+00  0.10000E+01  0.10000E+01  0.13667E-13
 -0.83333E+00 -0.16667E+00  0.83333E+00  0.10000E+01  0.10000E+01 -0.10841E-12
 -0.66667E+00 -0.16667E+00  0.83333E+00  0.10000E+01  0.10000E+01  0.47860E-13
 -0.50000E+00 -0.16667E+00  0.83333E+00  0.10000E+01  0.10000E+01  0.25892E-12
 -0.33333E+00 -0.16667E+00  0.83333E+00  0.10000E+01  0.10000E+01  0.23512E-12
 -0.16667E+00 -0.16667E+00  0.83333E+00  0.10000E+01  0.10000E+01 -0.80346E-13
 -0.14653E-15 -0.16667E+00  0.83333E+00  0.10000E+01  0.10000E+01 -0.21245E-12
 -0.10000E+01 -0.11947E-15  0.83333E+00  0.10000E+01  0.10000E+01  0.18477E-13
 -0.83333E+00 -0.14098E-15  0.83333E+00  0.10000E+01  0.10000E+01 -0.32333E-13
 -0.66667E+00 -0.12027E-15  0.83333E+00  0.10000E+01  0.10000E+01  0.33715E-13
 -0.50000E+00 -0.17450E-15  0.83333E+00  0.10000E+01  0.10000E+01  0.27265E-12
 -0.33333E+00 -0.11548E-15  0.83333E+00  0.10000E+01  0.10000E+01  0.33878E-12
 -0.16667E+00 -0.15964E-15  0.83333E+00  0.10000E+01  0.10000E+01  0.22110E-13
 -0.98337E-16 -0.18171E-15  0.83333E+00  0.10000E+01  0.10000E+01 -0.21411E-12
 -0.10000E+01 -0.10000E+01  0.10000E+01  0.10000E+01  0.10000E+01 -0.16002E-13
 -0.83333E+00 -0.10000E+01  0.10000E+01  0.10000E+01  0.10000E+01  0.13063E-12
 -0.66667E+00 -0.10000E+01  0.10000E+01  0.10000E+01  0.10000E+01 -0.33239E-12
 -0.50000E+00 -0.10000E+01  0.10000E+01  0.10000E+01  0.10000E+01 -0.31354E-12
 -0.33333E+00 -0.10000E+01  0.10000E+01  0.10000E+01  0.10000E+01 -0.25653E-13
 -0.16667E+00 -0.10000E+01  0.10000E+01  0.10000E+01  0.10000E+01  0.24972E-13
 -0.38164E-16 -0.10000E+01  0.10000E+01  0.10000E+01  0.10000E+01  0.49420E-13
 -0.10000E+01 -0.83333E+00  0.10000E+01  0.10000E+01  0.10000E+01 -0.86181E-13
 -0.83333E+00 -0.83333E+00  0.10000E+01  0.10000E+01  0.10000E+01 -0.25171E-13
 -0.66667E+00 -0.83333E+00  0.10000E+01  0.10000E+01  0.10000E+01 -0.29975E-12
 -0.50000E+00 -0.83333E+00  0.10000E+01  0.10000E+01  0.10000E+01 -0.27520E-12
 -0.33333E+00 -0.83333E+00  0.10000E+01  0.10000E+01  0.10000E+01 -0.13003E-12
 -0.16667E+00 -0.83333E+00  0.10000E+01  0.10000E+01  0.10000E+01 -0.14248E-12
 -0.12399E-15 -0.83333E+00  0.10000E+01  0.10000E+01  0.10000E+01  0.22902E-13
 -0.10000E+01 -0.66667E+00  0.10000E+01  0.10000E+01  0.10000E+01 -0.21005E-13
 -0.83333E+00 -0.66667E+00  0.10000E+01  0.10000E+01  0.10000E+01 -0.17458E-12
 -0.66667E+00 -0.66667E+00  0.10000E+01  0.10000E+01  0.10000E+01 -0.17031E-12
 -0.50000E+00 -0.66667E+00  0.10000E+01  0.10000E+01  0.10000E+01 -0.10610E-12
 -0.33333E+00 -0.66667E+00  0.10000E+01  0.10000E+01  0.10000E+01 -0.15760E-12
 -0.16667E+00 -0.66667E+00  0.10000E+01  0.10000E+01  0.10000E+01 -0.30139E-12
 -0.94542E-16 -0.66667E+00  0.10000E+01  0.10000E+01  0.10000E+01 -0.38082E-13
 -0.10000E+01 -0.50000E+00  0.10000E+01  0.10000E+01  0.10000E+01  0.18817E-13
 -0.83333E+00 -0.50000E+00  0.10000E+01  0.10000E+01  0.10000E+01 -0.22416E-12
 -0.66667E+00 -0.50000E+00  0.10000E+01  0.10000E+01  0.10000E+01 -0.10817E-12
 -0.50000E+00 -0.50000E+00  0.10000E+01  0.10000E+01  0.10000E+01  0.68484E-13
 -0.33333E+00 -0.50000E+00  0.10000E+01  0.10000E+01  0.10000E+01  0.97527E-14
 -0.16667E+00 -0.50000E+00  0.10000E+01  0.10000E+01  0.10000E+01 -0.26934E-12
  0.16480E-16 -0.50000E+00  0.10000E+01  0.10000E+01  0.10000E+01 -0.13392E-12
 -0.10000E+01 -0.33333E+00  0.10000E+01  0.10000E+01  0.10000E+01  0.11921E-13
 -0.83333E+00 -0.33333E+00  0.10000E+01  0.10000E+01  0.10000E+01 -0.17841E-12
 -0.66667E+00 -0.33333E+00  0.10000E+01  0.10000E+01  0.10000E+01 -0.54733E-13
 -0.50000E+00 -0.33333E+00  0.10000E+01  0.10000E+01  0.10000E+01  0.21795E-12
 -0.33333E+00 -0.33333E+00  0.10000E+01  0.10000E+01  0.10000E+01  0.23445E-12
 -0.16667E+00 -0.33333E+00  0.10000E+01  0.10000E+01  0.10000E+01 -0.13374E-12
 -0.10408E-15 -0.33333E+00  0.10000E+01  0.10000E+01  0.10000E+01 -0.22158E-12
 -0.10000E+01 -0.16667E+00  0.10000E+01  0.10000E+01  0.10000E+01 -0.75628E-15
 -0.83333E+00 -0.16667E+00  0.10000E+01  0.10000E+01  0.10000E+01 -0.89714E-13
 -0.66667E+00 -0.16667E+00  0.10000E+01  0.10000E+01  0.10000E+01  0.51667E-13
 -0.50000E+00 -0.16667E+00  0.10000E+01  0.10000E+01  0.10000E+01  0.33280E-12
 -0.33333E+00 -0.16667E+00  0.10000E+01  0.10000E+01  0.10000E+01  0.36094E-12
 -0.16667E+00 -0.16667E+00  0.10000E+01  0.10000E+01  0.10000E+01 -0.31584E-13
 -0.42284E-16 -0.16667E+00  0.10000E+01  0.10000E+01  0.10000E+01 -0.26013E-12
 -0.10000E+01 -0.15613E-16  0.10000E+01  0.10000E+01  0.10000E+01  0.69797E-14
 -0.83333E+00 -0.13632E-15  0.10000E+01  0.10000E+01  0.10000E+01 -0.83408E-14
 -0.66667E+00 -0.16393E-15  0.10000E+01  0.10000E+01  0.10000E+01  0.56273E-13
 -0.50000E+00  0.19082E-16  0.10000E+01  0.10000E+01  0.10000E+01  0.35106E-12
 -0.33333E+00 -0.76328E-16  0.10000E+01  0.10000E+01  0.10000E+01  0.45345E-12
 -0.16667E+00 -0.67221E-17  0.10000E+01  0.10000E+01  0.10000E+01  0.70938E-13
 -0.55511E-16 -0.27756E-16  0.10000E+01  0.10000E+01  0.10000E+01 -0.25616E-12
 ZONE I=           7 ,J=           7 ,K=           7 , F=POINT
 -0.32282E-16 -0.10000E+01 -0.97280E-16  0.10000E+01  0.10000E+01  0.30002E-14
  0.16667E+00 -0.10000E+01  0.33800E-16  0.10000E+01  0.10000E+01  0.35164E-13
  0.33333E+00 -0.10000E+01  0.98459E-16  0.10000E+01  0.10000E+01  0.13458E-13
  0.50000E+00 -0.10000E+01  0.19326E-16  0.10000E+01  0.10000E+01  0.38050E-14
  0.66667E+00 -0.10000E+01  0.67315E-16  0.10000E+01  0.10000E+01  0.10378E-13
  0.83333E+00 -0.10000E+01 -0.27878E-16  0.10000E+01  0.10000E+01  0.15090E-13
  0.10000E+01 -0.10000E+01 -0.57246E-16  0.10000E+01  0.10000E+01  0.17080E-13
 -0.33046E-16 -0.83333E+00 -0.16634E-16  0.10000E+01  0.10000E+01  0.14954E-13
  0.16667E+00 -0.83333E+00  0.15512E-16  0.10000E+01  0.10000E+01  0.35252E-14
  0.33333E+00 -0.83333E+00  0.11579E-15  0.10000E+01  0.10000E+01 -0.79963E-14
  0.50000E+00 -0.83333E+00  0.30744E-16  0.10000E+01  0.10000E+01 -0.12689E-13
  0.66667E+00 -0.83333E+00  0.11868E-15  0.10000E+01  0.10000E+01 -0.53540E-14
  0.83333E+00 -0.83333E+00 -0.31011E-16  0.10000E+01  0.10000E+01  0.10576E-13
  0.10000E+01 -0.83333E+00  0.17781E-16  0.10000E+01  0.10000E+01  0.16135E-13
 -0.40752E-16 -0.66667E+00  0.49507E-16  0.10000E+01  0.10000E+01  0.14315E-13
  0.16667E+00 -0.66667E+00  0.57589E-16  0.10000E+01  0.10000E+01 -0.92686E-14
  0.33333E+00 -0.66667E+00 -0.18137E-15  0.10000E+01  0.10000E+01 -0.11002E-13
  0.50000E+00 -0.66667E+00  0.29809E-16  0.10000E+01  0.10000E+01 -0.11329E-13
  0.66667E+00 -0.66667E+00 -0.58306E-16  0.10000E+01  0.10000E+01 -0.70545E-14
  0.83333E+00 -0.66667E+00  0.29783E-16  0.10000E+01  0.10000E+01  0.66981E-14
  0.10000E+01 -0.66667E+00 -0.85001E-16  0.10000E+01  0.10000E+01  0.14539E-13
 -0.87468E-16 -0.50000E+00 -0.15089E-15  0.10000E+01  0.10000E+01  0.72690E-14
  0.16667E+00 -0.50000E+00 -0.19177E-17  0.10000E+01  0.10000E+01 -0.10608E-13
  0.33333E+00 -0.50000E+00  0.12190E-16  0.10000E+01  0.10000E+01 -0.86078E-14
  0.50000E+00 -0.50000E+00 -0.54129E-16  0.10000E+01  0.10000E+01 -0.64201E-14
  0.66667E+00 -0.50000E+00  0.47664E-16  0.10000E+01  0.10000E+01 -0.29277E-14
  0.83333E+00 -0.50000E+00  0.86533E-17  0.10000E+01  0.10000E+01  0.58140E-14
  0.10000E+01 -0.50000E+00 -0.73726E-17  0.10000E+01  0.10000E+01  0.86014E-14
  0.83524E-16 -0.33333E+00  0.56419E-16  0.10000E+01  0.10000E+01 -0.41301E-15
  0.16667E+00 -0.33333E+00 -0.65968E-16  0.10000E+01  0.10000E+01 -0.10229E-13
  0.33333E+00 -0.33333E+00 -0.46123E-16  0.10000E+01  0.10000E+01 -0.69776E-14