TITLE = "Points"
VARIABLES = "x","y","z"
ZONE I=1608,J=2,K=1, DATAPACKING=POINT
  0.19793E+01  0.10357E-01  0.56351E-02
  0.19793E+01  0.10357E-01  0.25000E-01
  0.19793E+01  0.10357E-01  0.44365E-01
  0.19793E+01  0.10201E-01  0.56351E-02
  0.19793E+01  0.10201E-01  0.25000E-01
  0.19793E+01  0.10201E-01  0.44365E-01
  0.19793E+01  0.10045E-01  0.56351E-02
  0.19793E+01  0.10045E-01  0.25000E-01
  0.19793E+01  0.10045E-01  0.44365E-01
  0.19082E+01  0.10357E-01  0.56351E-02
  0.19082E+01  0.10357E-01  0.25000E-01
  0.19082E+01  0.10357E-01  0.44365E-01
  0.19082E+01  0.10201E-01  0.56351E-02
  0.19082E+01  0.10201E-01  0.25000E-01
  0.19082E+01  0.10201E-01  0.44365E-01
  0.19082E+01  0.10045E-01  0.56351E-02
  0.19082E+01  0.10045E-01  0.25000E-01
  0.19082E+01  0.10045E-01  0.44365E-01
  0.18371E+01  0.10357E-01  0.56351E-02
  0.18371E+01  0.10357E-01  0.25000E-01
  0.18371E+01  0.10357E-01  0.44365E-01
  0.18371E+01  0.10201E-01  0.56351E-02
  0.18371E+01  0.10201E-01  0.25000E-01
  0.18371E+01  0.10201E-01  0.44365E-01
  0.18371E+01  0.10045E-01  0.56351E-02
  0.18371E+01  0.10045E-01  0.25000E-01
  0.18371E+01  0.10045E-01  0.44365E-01
  0.19793E+01  0.10357E-01  0.55635E-01
  0.19793E+01  0.10357E-01  0.75000E-01
  0.19793E+01  0.10357E-01  0.94365E-01
  0.19793E+01  0.10201E-01  0.55635E-01
  0.19793E+01  0.10201E-01  0.75000E-01
  0.19793E+01  0.10201E-01  0.94365E-01
  0.19793E+01  0.10045E-01  0.55635E-01
  0.19793E+01  0.10045E-01  0.75000E-01
  0.19793E+01  0.10045E-01  0.94365E-01
  0.19082E+01  0.10357E-01  0.55635E-01
  0.19082E+01  0.10357E-01  0.75000E-01
  0.19082E+01  0.10357E-01  0.94365E-01
  0.19082E+01  0.10201E-01  0.55635E-01
  0.19082E+01  0.10201E-01  0.75000E-01
  0.19082E+01  0.10201E-01  0.94365E-01
  0.19082E+01  0.10045E-01  0.55635E-01
  0.19082E+01  0.10045E-01  0.75000E-01
  0.19082E+01  0.10045E-01  0.94365E-01
  0.18371E+01  0.10357E-01  0.55635E-01
  0.18371E+01  0.10357E-01  0.75000E-01
  0.18371E+01  0.10357E-01  0.94365E-01
  0.18371E+01  0.10201E-01  0.55635E-01
  0.18371E+01  0.10201E-01  0.75000E-01
  0.18371E+01  0.10201E-01  0.94365E-01
  0.18371E+01  0.10045E-01  0.55635E-01
  0.18371E+01  0.10045E-01  0.75000E-01
  0.18371E+01  0.10045E-01  0.94365E-01
  0.19793E+01  0.10450E-01  0.56351E-02
  0.19793E+01  0.10450E-01  0.25000E-01
  0.19793E+01  0.10450E-01  0.44365E-01
  0.19082E+01  0.10450E-01  0.56351E-02
  0.19082E+01  0.10450E-01  0.25000E-01
  0.19082E+01  0.10450E-01  0.44365E-01
  0.18371E+01  0.10450E-01  0.56351E-02
  0.18371E+01  0.10450E-01  0.25000E-01
  0.18371E+01  0.10450E-01  0.44365E-01
  0.19793E+01  0.10450E-01  0.55635E-01
  0.19793E+01  0.10450E-01  0.75000E-01
  0.19793E+01  0.10450E-01  0.94365E-01
  0.19082E+01  0.10450E-01  0.55635E-01
  0.19082E+01  0.10450E-01  0.75000E-01
  0.19082E+01  0.10450E-01  0.94365E-01
  0.18371E+01  0.10450E-01  0.55635E-01
  0.18371E+01  0.10450E-01  0.75000E-01
  0.18371E+01  0.10450E-01  0.94365E-01
  0.17977E+01  0.10357E-01  0.56351E-02
  0.17977E+01  0.10357E-01  0.25000E-01
  0.17977E+01  0.10357E-01  0.44365E-01
  0.17977E+01  0.10201E-01  0.56351E-02
  0.17977E+01  0.10201E-01  0.25000E-01
  0.17977E+01  0.10201E-01  0.44365E-01
  0.17977E+01  0.10045E-01  0.56351E-02
  0.17977E+01  0.10045E-01  0.25000E-01
  0.17977E+01  0.10045E-01  0.44365E-01
  0.17330E+01  0.10357E-01  0.56351E-02
  0.17330E+01  0.10357E-01  0.25000E-01
  0.17330E+01  0.10357E-01  0.44365E-01
  0.17330E+01  0.10201E-01  0.56351E-02
  0.17330E+01  0.10201E-01  0.25000E-01
  0.17330E+01  0.10201E-01  0.44365E-01
  0.17330E+01  0.10045E-01  0.56351E-02
  0.17330E+01  0.10045E-01  0.25000E-01
  0.17330E+01  0.10045E-01  0.44365E-01
  0.16684E+01  0.10357E-01  0.56351E-02
  0.16684E+01  0.10357E-01  0.25000E-01
  0.16684E+01  0.10357E-01  0.44365E-01
  0.16684E+01  0.10201E-01  0.56351E-02
  0.16684E+01  0.10201E-01  0.25000E-01
  0.16684E+01  0.10201E-01  0.44365E-01
  0.16684E+01  0.10045E-01  0.56351E-02
  0.16684E+01  0.10045E-01  0.25000E-01
  0.16684E+01  0.10045E-01  0.44365E-01
  0.17977E+01  0.10357E-01  0.55635E-01
  0.17977E+01  0.10357E-01  0.75000E-01
  0.17977E+01  0.10357E-01  0.94365E-01
  0.17977E+01  0.10201E-01  0.55635E-01
  0.17977E+01  0.10201E-01  0.75000E-01
  0.17977E+01  0.10201E-01  0.94365E-01
  0.17977E+01  0.10045E-01  0.55635E-01
  0.17977E+01  0.10045E-01  0.75000E-01
  0.17977E+01  0.10045E-01  0.94365E-01
  0.17330E+01  0.10357E-01  0.55635E-01
  0.17330E+01  0.10357E-01  0.75000E-01
  0.17330E+01  0.10357E-01  0.94365E-01
  0.17330E+01  0.10201E-01  0.55635E-01
  0.17330E+01  0.10201E-01  0.75000E-01
  0.17330E+01  0.10201E-01  0.94365E-01
  0.17330E+01  0.10045E-01  0.55635E-01
  0.17330E+01  0.10045E-01  0.75000E-01
  0.17330E+01  0.10045E-01  0.94365E-01
  0.16684E+01  0.10357E-01  0.55635E-01
  0.16684E+01  0.10357E-01  0.75000E-01
  0.16684E+01  0.10357E-01  0.94365E-01
  0.16684E+01  0.10201E-01  0.55635E-01
  0.16684E+01  0.10201E-01  0.75000E-01
  0.16684E+01  0.10201E-01  0.94365E-01
  0.16684E+01  0.10045E-01  0.55635E-01
  0.16684E+01  0.10045E-01  0.75000E-01
  0.16684E+01  0.10045E-01  0.94365E-01
  0.17977E+01  0.10450E-01  0.56351E-02
  0.17977E+01  0.10450E-01  0.25000E-01
  0.17977E+01  0.10450E-01  0.44365E-01
  0.17330E+01  0.10450E-01  0.56351E-02
  0.17330E+01  0.10450E-01  0.25000E-01
  0.17330E+01  0.10450E-01  0.44365E-01
  0.16684E+01  0.10450E-01  0.56351E-02
  0.16684E+01  0.10450E-01  0.25000E-01
  0.16684E+01  0.10450E-01  0.44365E-01
  0.17977E+01  0.10450E-01  0.55635E-01
  0.17977E+01  0.10450E-01  0.75000E-01
  0.17977E+01  0.10450E-01  0.94365E-01
  0.17330E+01  0.10450E-01  0.55635E-01
  0.17330E+01  0.10450E-01  0.75000E-01
  0.17330E+01  0.10450E-01  0.94365E-01
  0.16684E+01  0.10450E-01  0.55635E-01
  0.16684E+01  0.10450E-01  0.75000E-01
  0.16684E+01  0.10450E-01  0.94365E-01
  0.16325E+01  0.10357E-01  0.56351E-02
  0.16325E+01  0.10357E-01  0.25000E-01
  0.16325E+01  0.10357E-01  0.44365E-01
  0.16325E+01  0.10201E-01  0.56351E-02
  0.16325E+01  0.10201E-01  0.25000E-01
  0.16325E+01  0.10201E-01  0.44365E-01
  0.16325E+01  0.10045E-01  0.56351E-02
  0.16325E+01  0.10045E-01  0.25000E-01
  0.16325E+01  0.10045E-01  0.44365E-01
  0.15738E+01  0.10357E-01  0.56351E-02
  0.15738E+01  0.10357E-01  0.25000E-01
  0.15738E+01  0.10357E-01  0.44365E-01
  0.15738E+01  0.10201E-01  0.56351E-02
  0.15738E+01  0.10201E-01  0.25000E-01
  0.15738E+01  0.10201E-01  0.44365E-01
  0.15738E+01  0.10045E-01  0.56351E-02
  0.15738E+01  0.10045E-01  0.25000E-01
  0.15738E+01  0.10045E-01  0.44365E-01
  0.15150E+01  0.10357E-01  0.56351E-02
  0.15150E+01  0.10357E-01  0.25000E-01
  0.15150E+01  0.10357E-01  0.44365E-01
  0.15150E+01  0.10201E-01  0.56351E-02
  0.15150E+01  0.10201E-01  0.25000E-01
  0.15150E+01  0.10201E-01  0.44365E-01
  0.15150E+01  0.10045E-01  0.56351E-02
  0.15150E+01  0.10045E-01  0.25000E-01
  0.15150E+01  0.10045E-01  0.44365E-01
  0.16325E+01  0.10357E-01  0.55635E-01
  0.16325E+01  0.10357E-01  0.75000E-01
  0.16325E+01  0.10357E-01  0.94365E-01
  0.16325E+01  0.10201E-01  0.55635E-01
  0.16325E+01  0.10201E-01  0.75000E-01
  0.16325E+01  0.10201E-01  0.94365E-01
  0.16325E+01  0.10045E-01  0.55635E-01
  0.16325E+01  0.10045E-01  0.75000E-01
  0.16325E+01  0.10045E-01  0.94365E-01
  0.15738E+01  0.10357E-01  0.55635E-01
  0.15738E+01  0.10357E-01  0.75000E-01
  0.15738E+01  0.10357E-01  0.94365E-01
  0.15738E+01  0.10201E-01  0.55635E-01
  0.15738E+01  0.10201E-01  0.75000E-01
  0.15738E+01  0.10201E-01  0.94365E-01
  0.15738E+01  0.10045E-01  0.55635E-01
  0.15738E+01  0.10045E-01  0.75000E-01
  0.15738E+01  0.10045E-01  0.94365E-01
  0.15150E+01  0.10357E-01  0.55635E-01
  0.15150E+01  0.10357E-01  0.75000E-01
  0.15150E+01  0.10357E-01  0.94365E-01
  0.15150E+01  0.10201E-01  0.55635E-01
  0.15150E+01  0.10201E-01  0.75000E-01
  0.15150E+01  0.10201E-01  0.94365E-01
  0.15150E+01  0.10045E-01  0.55635E-01
  0.15150E+01  0.10045E-01  0.75000E-01
  0.15150E+01  0.10045E-01  0.94365E-01
  0.16325E+01  0.10450E-01  0.56351E-02
  0.16325E+01  0.10450E-01  0.25000E-01
  0.16325E+01  0.10450E-01  0.44365E-01
  0.15738E+01  0.10450E-01  0.56351E-02
  0.15738E+01  0.10450E-01  0.25000E-01
  0.15738E+01  0.10450E-01  0.44365E-01
  0.15150E+01  0.10450E-01  0.56351E-02
  0.15150E+01  0.10450E-01  0.25000E-01
  0.15150E+01  0.10450E-01  0.44365E-01
  0.16325E+01  0.10450E-01  0.55635E-01
  0.16325E+01  0.10450E-01  0.75000E-01
  0.16325E+01  0.10450E-01  0.94365E-01
  0.15738E+01  0.10450E-01  0.55635E-01
  0.15738E+01  0.10450E-01  0.75000E-01
  0.15738E+01  0.10450E-01  0.94365E-01
  0.15150E+01  0.10450E-01  0.55635E-01
  0.15150E+01  0.10450E-01  0.75000E-01
  0.15150E+01  0.10450E-01  0.94365E-01
  0.14824E+01  0.10357E-01  0.56351E-02
  0.14824E+01  0.10357E-01  0.25000E-01
  0.14824E+01  0.10357E-01  0.44365E-01
  0.14824E+01  0.10201E-01  0.56351E-02
  0.14824E+01  0.10201E-01  0.25000E-01
  0.14824E+01  0.10201E-01  0.44365E-01
  0.14824E+01  0.10045E-01  0.56351E-02
  0.14824E+01  0.10045E-01  0.25000E-01
  0.14824E+01  0.10045E-01  0.44365E-01
  0.14290E+01  0.10357E-01  0.56351E-02
  0.14290E+01  0.10357E-01  0.25000E-01
  0.14290E+01  0.10357E-01  0.44365E-01
  0.14290E+01  0.10201E-01  0.56351E-02
  0.14290E+01  0.10201E-01  0.25000E-01
  0.14290E+01  0.10201E-01  0.44365E-01
  0.14290E+01  0.10045E-01  0.56351E-02
  0.14290E+01  0.10045E-01  0.25000E-01
  0.14290E+01  0.10045E-01  0.44365E-01
  0.13756E+01  0.10357E-01  0.56351E-02
  0.13756E+01  0.10357E-01  0.25000E-01
  0.13756E+01  0.10357E-01  0.44365E-01
  0.13756E+01  0.10201E-01  0.56351E-02
  0.13756E+01  0.10201E-01  0.25000E-01
  0.13756E+01  0.10201E-01  0.44365E-01
  0.13756E+01  0.10045E-01  0.56351E-02
  0.13756E+01  0.10045E-01  0.25000E-01
  0.13756E+01  0.10045E-01  0.44365E-01
  0.14824E+01  0.10357E-01  0.55635E-01
  0.14824E+01  0.10357E-01  0.75000E-01
  0.14824E+01  0.10357E-01  0.94365E-01
  0.14824E+01  0.10201E-01  0.55635E-01
  0.14824E+01  0.10201E-01  0.75000E-01
  0.14824E+01  0.10201E-01  0.94365E-01
  0.14824E+01  0.10045E-01  0.55635E-01
  0.14824E+01  0.10045E-01  0.75000E-01
  0.14824E+01  0.10045E-01  0.94365E-01
  0.14290E+01  0.10357E-01  0.55635E-01
  0.14290E+01  0.10357E-01  0.75000E-01
  0.14290E+01  0.10357E-01  0.94365E-01
  0.14290E+01  0.10201E-01  0.55635E-01
  0.14290E+01  0.10201E-01  0.75000E-01
  0.14290E+01  0.10201E-01  0.94365E-01
  0.14290E+01  0.10045E-01  0.55635E-01
  0.14290E+01  0.10045E-01  0.75000E-01
  0.14290E+01  0.10045E-01  0.94365E-01
  0.13756E+01  0.10357E-01  0.55635E-01
  0.13756E+01  0.10357E-01  0.75000E-01
  0.13756E+01  0.10357E-01  0.94365E-01
  0.13756E+01  0.10201E-01  0.55635E-01
  0.13756E+01  0.10201E-01  0.75000E-01
  0.13756E+01  0.10201E-01  0.94365E-01
  0.13756E+01  0.10045E-01  0.55635E-01
  0.13756E+01  0.10045E-01  0.75000E-01
  0.13756E+01  0.10045E-01  0.94365E-01
  0.14824E+01  0.10450E-01  0.56351E-02
  0.14824E+01  0.10450E-01  0.25000E-01
  0.14824E+01  0.10450E-01  0.44365E-01
  0.14290E+01  0.10450E-01  0.56351E-02
  0.14290E+01  0.10450E-01  0.25000E-01
  0.14290E+01  0.10450E-01  0.44365E-01
  0.13756E+01  0.10450E-01  0.56351E-02
  0.13756E+01  0.10450E-01  0.25000E-01
  0.13756E+01  0.10450E-01  0.44365E-01
  0.14824E+01  0.10450E-01  0.55635E-01
  0.14824E+01  0.10450E-01  0.75000E-01
  0.14824E+01  0.10450E-01  0.94365E-01
  0.14290E+01  0.10450E-01  0.55635E-01
  0.14290E+01  0.10450E-01  0.75000E-01
  0.14290E+01  0.10450E-01  0.94365E-01
  0.13756E+01  0.10450E-01  0.55635E-01
  0.13756E+01  0.10450E-01  0.75000E-01
  0.13756E+01  0.10450E-01  0.94365E-01
  0.13459E+01  0.10357E-01  0.56351E-02
  0.13459E+01  0.10357E-01  0.25000E-01
  0.13459E+01  0.10357E-01  0.44365E-01
  0.13459E+01  0.10201E-01  0.56351E-02
  0.13459E+01  0.10201E-01  0.25000E-01
  0.13459E+01  0.10201E-01  0.44365E-01
  0.13459E+01  0.10045E-01  0.56351E-02
  0.13459E+01  0.10045E-01  0.25000E-01
  0.13459E+01  0.10045E-01  0.44365E-01
  0.12974E+01  0.10357E-01  0.56351E-02
  0.12974E+01  0.10357E-01  0.25000E-01
  0.12974E+01  0.10357E-01  0.44365E-01
  0.12974E+01  0.10201E-01  0.56351E-02
  0.12974E+01  0.10201E-01  0.25000E-01
  0.12974E+01  0.10201E-01  0.44365E-01
  0.12974E+01  0.10045E-01  0.56351E-02
  0.12974E+01  0.10045E-01  0.25000E-01
  0.12974E+01  0.10045E-01  0.44365E-01
  0.12488E+01  0.10357E-01  0.56351E-02
  0.12488E+01  0.10357E-01  0.25000E-01
  0.12488E+01  0.10357E-01  0.44365E-01
  0.12488E+01  0.10201E-01  0.56351E-02
  0.12488E+01  0.10201E-01  0.25000E-01
  0.12488E+01  0.10201E-01  0.44365E-01
  0.12488E+01  0.10045E-01  0.56351E-02
  0.12488E+01  0.10045E-01  0.25000E-01
  0.12488E+01  0.10045E-01  0.44365E-01
  0.13459E+01  0.10357E-01  0.55635E-01
  0.13459E+01  0.10357E-01  0.75000E-01
  0.13459E+01  0.10357E-01  0.94365E-01
  0.13459E+01  0.10201E-01  0.55635E-01
  0.13459E+01  0.10201E-01  0.75000E-01
  0.13459E+01  0.10201E-01  0.94365E-01
  0.13459E+01  0.10045E-01  0.55635E-01
  0.13459E+01  0.10045E-01  0.75000E-01
  0.13459E+01  0.10045E-01  0.94365E-01
  0.12974E+01  0.10357E-01  0.55635E-01
  0.12974E+01  0.10357E-01  0.75000E-01
  0.12974E+01  0.10357E-01  0.94365E-01
  0.12974E+01  0.10201E-01  0.55635E-01
  0.12974E+01  0.10201E-01  0.75000E-01
  0.12974E+01  0.10201E-01  0.94365E-01
  0.12974E+01  0.10045E-01  0.55635E-01
  0.12974E+01  0.10045E-01  0.75000E-01
  0.12974E+01  0.10045E-01  0.94365E-01
  0.12488E+01  0.10357E-01  0.55635E-01
  0.12488E+01  0.10357E-01  0.75000E-01
  0.12488E+01  0.10357E-01  0.94365E-01
  0.12488E+01  0.10201E-01  0.55635E-01
  0.12488E+01  0.10201E-01  0.75000E-01
  0.12488E+01  0.10201E-01  0.94365E-01
  0.12488E+01  0.10045E-01  0.55635E-01
  0.12488E+01  0.10045E-01  0.75000E-01
  0.12488E+01  0.10045E-01  0.94365E-01
  0.13459E+01  0.10450E-01  0.56351E-02
  0.13459E+01  0.10450E-01  0.25000E-01
  0.13459E+01  0.10450E-01  0.44365E-01
  0.12974E+01  0.10450E-01  0.56351E-02
  0.12974E+01  0.10450E-01  0.25000E-01
  0.12974E+01  0.10450E-01  0.44365E-01
  0.12488E+01  0.10450E-01  0.56351E-02
  0.12488E+01  0.10450E-01  0.25000E-01
  0.12488E+01  0.10450E-01  0.44365E-01
  0.13459E+01  0.10450E-01  0.55635E-01
  0.13459E+01  0.10450E-01  0.75000E-01
  0.13459E+01  0.10450E-01  0.94365E-01
  0.12974E+01  0.10450E-01  0.55635E-01
  0.12974E+01  0.10450E-01  0.75000E-01
  0.12974E+01  0.10450E-01  0.94365E-01
  0.12488E+01  0.10450E-01  0.55635E-01
  0.12488E+01  0.10450E-01  0.75000E-01
  0.12488E+01  0.10450E-01  0.94365E-01
  0.12218E+01  0.10357E-01  0.56351E-02
  0.12218E+01  0.10357E-01  0.25000E-01
  0.12218E+01  0.10357E-01  0.44365E-01
  0.12218E+01  0.10201E-01  0.56351E-02
  0.12218E+01  0.10201E-01  0.25000E-01
  0.12218E+01  0.10201E-01  0.44365E-01
  0.12218E+01  0.10045E-01  0.56351E-02
  0.12218E+01  0.10045E-01  0.25000E-01
  0.12218E+01  0.10045E-01  0.44365E-01
  0.11777E+01  0.10357E-01  0.56351E-02
  0.11777E+01  0.10357E-01  0.25000E-01
  0.11777E+01  0.10357E-01  0.44365E-01
  0.11777E+01  0.10201E-01  0.56351E-02
  0.11777E+01  0.10201E-01  0.25000E-01
  0.11777E+01  0.10201E-01  0.44365E-01
  0.11777E+01  0.10045E-01  0.56351E-02
  0.11777E+01  0.10045E-01  0.25000E-01
  0.11777E+01  0.10045E-01  0.44365E-01
  0.11336E+01  0.10357E-01  0.56351E-02
  0.11336E+01  0.10357E-01  0.25000E-01
  0.11336E+01  0.10357E-01  0.44365E-01
  0.11336E+01  0.10201E-01  0.56351E-02
  0.11336E+01  0.10201E-01  0.25000E-01
  0.11336E+01  0.10201E-01  0.44365E-01
  0.11336E+01  0.10045E-01  0.56351E-02
  0.11336E+01  0.10045E-01  0.25000E-01
  0.11336E+01  0.10045E-01  0.44365E-01
  0.12218E+01  0.10357E-01  0.55635E-01
  0.12218E+01  0.10357E-01  0.75000E-01
  0.12218E+01  0.10357E-01  0.94365E-01
  0.12218E+01  0.10201E-01  0.55635E-01
  0.12218E+01  0.10201E-01  0.75000E-01
  0.12218E+01  0.10201E-01  0.94365E-01
  0.12218E+01  0.10045E-01  0.55635E-01
  0.12218E+01  0.10045E-01  0.75000E-01
  0.12218E+01  0.10045E-01  0.94365E-01
  0.11777E+01  0.10357E-01  0.55635E-01
  0.11777E+01  0.10357E-01  0.75000E-01
  0.11777E+01  0.10357E-01  0.94365E-01
  0.11777E+01  0.10201E-01  0.55635E-01
  0.11777E+01  0.10201E-01  0.75000E-01
  0.11777E+01  0.10201E-01  0.94365E-01
  0.11777E+01  0.10045E-01  0.55635E-01
  0.11777E+01  0.10045E-01  0.75000E-01
  0.11777E+01  0.10045E-01  0.94365E-01
  0.11336E+01  0.10357E-01  0.55635E-01
  0.11336E+01  0.10357E-01  0.75000E-01
  0.11336E+01  0.10357E-01  0.94365E-01
  0.11336E+01  0.10201E-01  0.55635E-01
  0.11336E+01  0.10201E-01  0.75000E-01
  0.11336E+01  0.10201E-01  0.94365E-01
  0.11336E+01  0.10045E-01  0.55635E-01
  0.11336E+01  0.10045E-01  0.75000E-01
  0.11336E+01  0.10045E-01  0.94365E-01
  0.12218E+01  0.10450E-01  0.56351E-02
  0.12218E+01  0.10450E-01  0.25000E-01
  0.12218E+01  0.10450E-01  0.44365E-01
  0.11777E+01  0.10450E-01  0.56351E-02
  0.11777E+01  0.10450E-01  0.25000E-01
  0.11777E+01  0.10450E-01  0.44365E-01
  0.11336E+01  0.10450E-01  0.56351E-02
  0.11336E+01  0.10450E-01  0.25000E-01
  0.11336E+01  0.10450E-01  0.44365E-01
  0.12218E+01  0.10450E-01  0.55635E-01
  0.12218E+01  0.10450E-01  0.75000E-01
  0.12218E+01  0.10450E-01  0.94365E-01
  0.11777E+01  0.10450E-01  0.55635E-01
  0.11777E+01  0.10450E-01  0.75000E-01
  0.11777E+01  0.10450E-01  0.94365E-01
  0.11336E+01  0.10450E-01  0.55635E-01
  0.11336E+01  0.10450E-01  0.75000E-01
  0.11336E+01  0.10450E-01  0.94365E-01
  0.11090E+01  0.10357E-01  0.56351E-02
  0.11090E+01  0.10357E-01  0.25000E-01
  0.11090E+01  0.10357E-01  0.44365E-01
  0.11090E+01  0.10201E-01  0.56351E-02
  0.11090E+01  0.10201E-01  0.25000E-01
  0.11090E+01  0.10201E-01  0.44365E-01
  0.11090E+01  0.10045E-01  0.56351E-02
  0.11090E+01  0.10045E-01  0.25000E-01
  0.11090E+01  0.10045E-01  0.44365E-01
  0.10689E+01  0.10357E-01  0.56351E-02
  0.10689E+01  0.10357E-01  0.25000E-01
  0.10689E+01  0.10357E-01  0.44365E-01
  0.10689E+01  0.10201E-01  0.56351E-02
  0.10689E+01  0.10201E-01  0.25000E-01
  0.10689E+01  0.10201E-01  0.44365E-01
  0.10689E+01  0.10045E-01  0.56351E-02
  0.10689E+01  0.10045E-01  0.25000E-01
  0.10689E+01  0.10045E-01  0.44365E-01
  0.10288E+01  0.10357E-01  0.56351E-02
  0.10288E+01  0.10357E-01  0.25000E-01
  0.10288E+01  0.10357E-01  0.44365E-01
  0.10288E+01  0.10201E-01  0.56351E-02
  0.10288E+01  0.10201E-01  0.25000E-01
  0.10288E+01  0.10201E-01  0.44365E-01
  0.10288E+01  0.10045E-01  0.56351E-02
  0.10288E+01  0.10045E-01  0.25000E-01
  0.10288E+01  0.10045E-01  0.44365E-01
  0.11090E+01  0.10357E-01  0.55635E-01
  0.11090E+01  0.10357E-01  0.75000E-01
  0.11090E+01  0.10357E-01  0.94365E-01
  0.11090E+01  0.10201E-01  0.55635E-01
  0.11090E+01  0.10201E-01  0.75000E-01
  0.11090E+01  0.10201E-01  0.94365E-01
  0.11090E+01  0.10045E-01  0.55635E-01
  0.11090E+01  0.10045E-01  0.75000E-01
  0.11090E+01  0.10045E-01  0.94365E-01
  0.10689E+01  0.10357E-01  0.55635E-01
  0.10689E+01  0.10357E-01  0.75000E-01
  0.10689E+01  0.10357E-01  0.94365E-01
  0.10689E+01  0.10201E-01  0.55635E-01
  0.10689E+01  0.10201E-01  0.75000E-01
  0.10689E+01  0.10201E-01  0.94365E-01
  0.10689E+01  0.10045E-01  0.55635E-01
  0.10689E+01  0.10045E-01  0.75000E-01
  0.10689E+01  0.10045E-01  0.94365E-01
  0.10288E+01  0.10357E-01  0.55635E-01
  0.10288E+01  0.10357E-01  0.75000E-01
  0.10288E+01  0.10357E-01  0.94365E-01
  0.10288E+01  0.10201E-01  0.55635E-01
  0.10288E+01  0.10201E-01  0.75000E-01
  0.10288E+01  0.10201E-01  0.94365E-01
  0.10288E+01  0.10045E-01  0.55635E-01
  0.10288E+01  0.10045E-01  0.75000E-01
  0.10288E+01  0.10045E-01  0.94365E-01
  0.11090E+01  0.10450E-01  0.56351E-02
  0.11090E+01  0.10450E-01  0.25000E-01
  0.11090E+01  0.10450E-01  0.44365E-01
  0.10689E+01  0.10450E-01  0.56351E-02
  0.10689E+01  0.10450E-01  0.25000E-01
  0.10689E+01  0.10450E-01  0.44365E-01
  0.10288E+01  0.10450E-01  0.56351E-02
  0.10288E+01  0.10450E-01  0.25000E-01
  0.10288E+01  0.10450E-01  0.44365E-01
  0.11090E+01  0.10450E-01  0.55635E-01
  0.11090E+01  0.10450E-01  0.75000E-01
  0.11090E+01  0.10450E-01  0.94365E-01
  0.10689E+01  0.10450E-01  0.55635E-01
  0.10689E+01  0.10450E-01  0.75000E-01
  0.10689E+01  0.10450E-01  0.94365E-01
  0.10288E+01  0.10450E-01  0.55635E-01
  0.10288E+01  0.10450E-01  0.75000E-01
  0.10288E+01  0.10450E-01  0.94365E-01
  0.10065E+01  0.10357E-01  0.56351E-02
  0.10065E+01  0.10357E-01  0.25000E-01
  0.10065E+01  0.10357E-01  0.44365E-01
  0.10065E+01  0.10201E-01  0.56351E-02
  0.10065E+01  0.10201E-01  0.25000E-01
  0.10065E+01  0.10201E-01  0.44365E-01
  0.10065E+01  0.10045E-01  0.56351E-02
  0.10065E+01  0.10045E-01  0.25000E-01
  0.10065E+01  0.10045E-01  0.44365E-01
  0.97001E+00  0.10357E-01  0.56351E-02
  0.97001E+00  0.10357E-01  0.25000E-01
  0.97001E+00  0.10357E-01  0.44365E-01
  0.97001E+00  0.10201E-01  0.56351E-02
  0.97001E+00  0.10201E-01  0.25000E-01
  0.97001E+00  0.10201E-01  0.44365E-01
  0.97001E+00  0.10045E-01  0.56351E-02
  0.97001E+00  0.10045E-01  0.25000E-01
  0.97001E+00  0.10045E-01  0.44365E-01
  0.93354E+00  0.10357E-01  0.56351E-02
  0.93354E+00  0.10357E-01  0.25000E-01
  0.93354E+00  0.10357E-01  0.44365E-01
  0.93354E+00  0.10201E-01  0.56351E-02
  0.93354E+00  0.10201E-01  0.25000E-01
  0.93354E+00  0.10201E-01  0.44365E-01
  0.93354E+00  0.10045E-01  0.56351E-02
  0.93354E+00  0.10045E-01  0.25000E-01
  0.93354E+00  0.10045E-01  0.44365E-01
  0.10065E+01  0.10357E-01  0.55635E-01
  0.10065E+01  0.10357E-01  0.75000E-01
  0.10065E+01  0.10357E-01  0.94365E-01
  0.10065E+01  0.10201E-01  0.55635E-01
  0.10065E+01  0.10201E-01  0.75000E-01
  0.10065E+01  0.10201E-01  0.94365E-01
  0.10065E+01  0.10045E-01  0.55635E-01
  0.10065E+01  0.10045E-01  0.75000E-01
  0.10065E+01  0.10045E-01  0.94365E-01
  0.97001E+00  0.10357E-01  0.55635E-01
  0.97001E+00  0.10357E-01  0.75000E-01
  0.97001E+00  0.10357E-01  0.94365E-01
  0.97001E+00  0.10201E-01  0.55635E-01
  0.97001E+00  0.10201E-01  0.75000E-01
  0.97001E+00  0.10201E-01  0.94365E-01
  0.97001E+00  0.10045E-01  0.55635E-01
  0.97001E+00  0.10045E-01  0.75000E-01
  0.97001E+00  0.10045E-01  0.94365E-01
  0.93354E+00  0.10357E-01  0.55635E-01
  0.93354E+00  0.10357E-01  0.75000E-01
  0.93354E+00  0.10357E-01  0.94365E-01
  0.93354E+00  0.10201E-01  0.55635E-01
  0.93354E+00  0.10201E-01  0.75000E-01
  0.93354E+00  0.10201E-01  0.94365E-01
  0.93354E+00  0.10045E-01  0.55635E-01
  0.93354E+00  0.10045E-01  0.75000E-01
  0.93354E+00  0.10045E-01  0.94365E-01
  0.10065E+01  0.10450E-01  0.56351E-02
  0.10065E+01  0.10450E-01  0.25000E-01
  0.10065E+01  0.10450E-01  0.44365E-01
  0.97001E+00  0.10450E-01  0.56351E-02
  0.97001E+00  0.10450E-01  0.25000E-01
  0.97001E+00  0.10450E-01  0.44365E-01
  0.93354E+00  0.10450E-01  0.56351E-02
  0.93354E+00  0.10450E-01  0.25000E-01
  0.93354E+00  0.10450E-01  0.44365E-01
  0.10065E+01  0.10450E-01  0.55635E-01
  0.10065E+01  0.10450E-01  0.75000E-01
  0.10065E+01  0.10450E-01  0.94365E-01
  0.97001E+00  0.10450E-01  0.55635E-01
  0.97001E+00  0.10450E-01  0.75000E-01
  0.97001E+00  0.10450E-01  0.94365E-01
  0.93354E+00  0.10450E-01  0.55635E-01
  0.93354E+00  0.10450E-01  0.75000E-01
  0.93354E+00  0.10450E-01  0.94365E-01
  0.91327E+00  0.10357E-01  0.56351E-02
  0.91327E+00  0.10357E-01  0.25000E-01
  0.91327E+00  0.10357E-01  0.44365E-01
  0.91327E+00  0.10201E-01  0.56351E-02
  0.91327E+00  0.10201E-01  0.25000E-01
  0.91327E+00  0.10201E-01  0.44365E-01
  0.91327E+00  0.10045E-01  0.56351E-02
  0.91327E+00  0.10045E-01  0.25000E-01
  0.91327E+00  0.10045E-01  0.44365E-01
  0.88011E+00  0.10357E-01  0.56351E-02
  0.88011E+00  0.10357E-01  0.25000E-01
  0.88011E+00  0.10357E-01  0.44365E-01
  0.88011E+00  0.10201E-01  0.56351E-02
  0.88011E+00  0.10201E-01  0.25000E-01
  0.88011E+00  0.10201E-01  0.44365E-01
  0.88011E+00  0.10045E-01  0.56351E-02
  0.88011E+00  0.10045E-01  0.25000E-01
  0.88011E+00  0.10045E-01  0.44365E-01
  0.84695E+00  0.10357E-01  0.56351E-02
  0.84695E+00  0.10357E-01  0.25000E-01
  0.84695E+00  0.10357E-01  0.44365E-01
  0.84695E+00  0.10201E-01  0.56351E-02
  0.84695E+00  0.10201E-01  0.25000E-01
  0.84695E+00  0.10201E-01  0.44365E-01
  0.84695E+00  0.10045E-01  0.56351E-02
  0.84695E+00  0.10045E-01  0.25000E-01
  0.84695E+00  0.10045E-01  0.44365E-01
  0.91327E+00  0.10357E-01  0.55635E-01
  0.91327E+00  0.10357E-01  0.75000E-01
  0.91327E+00  0.10357E-01  0.94365E-01
  0.91327E+00  0.10201E-01  0.55635E-01
  0.91327E+00  0.10201E-01  0.75000E-01
  0.91327E+00  0.10201E-01  0.94365E-01
  0.91327E+00  0.10045E-01  0.55635E-01
  0.91327E+00  0.10045E-01  0.75000E-01
  0.91327E+00  0.10045E-01  0.94365E-01
  0.88011E+00  0.10357E-01  0.55635E-01
  0.88011E+00  0.10357E-01  0.75000E-01
  0.88011E+00  0.10357E-01  0.94365E-01
  0.88011E+00  0.10201E-01  0.55635E-01
  0.88011E+00  0.10201E-01  0.75000E-01
  0.88011E+00  0.10201E-01  0.94365E-01
  0.88011E+00  0.10045E-01  0.55635E-01
  0.88011E+00  0.10045E-01  0.75000E-01
  0.88011E+00  0.10045E-01  0.94365E-01
  0.84695E+00  0.10357E-01  0.55635E-01
  0.84695E+00  0.10357E-01  0.75000E-01
  0.84695E+00  0.10357E-01  0.94365E-01
  0.84695E+00  0.10201E-01  0.55635E-01
  0.84695E+00  0.10201E-01  0.75000E-01
  0.84695E+00  0.10201E-01  0.94365E-01
  0.84695E+00  0.10045E-01  0.55635E-01
  0.84695E+00  0.10045E-01  0.75000E-01
  0.84695E+00  0.10045E-01  0.94365E-01
  0.91327E+00  0.10450E-01  0.56351E-02
  0.91327E+00  0.10450E-01  0.25000E-01
  0.91327E+00  0.10450E-01  0.44365E-01
  0.88011E+00  0.10450E-01  0.56351E-02
  0.88011E+00  0.10450E-01  0.25000E-01
  0.88011E+00  0.10450E-01  0.44365E-01
  0.84695E+00  0.10450E-01  0.56351E-02
  0.84695E+00  0.10450E-01  0.25000E-01
  0.84695E+00  0.10450E-01  0.44365E-01
  0.91327E+00  0.10450E-01  0.55635E-01
  0.91327E+00  0.10450E-01  0.75000E-01
  0.91327E+00  0.10450E-01  0.94365E-01
  0.88011E+00  0.10450E-01  0.55635E-01
  0.88011E+00  0.10450E-01  0.75000E-01
  0.88011E+00  0.10450E-01  0.94365E-01
  0.84695E+00  0.10450E-01  0.55635E-01
  0.84695E+00  0.10450E-01  0.75000E-01
  0.84695E+00  0.10450E-01  0.94365E-01
  0.82853E+00  0.10357E-01  0.56351E-02
  0.82853E+00  0.10357E-01  0.25000E-01
  0.82853E+00  0.10357E-01  0.44365E-01
  0.82853E+00  0.10201E-01  0.56351E-02
  0.82853E+00  0.10201E-01  0.25000E-01
  0.82853E+00  0.10201E-01  0.44365E-01
  0.82853E+00  0.10045E-01  0.56351E-02
  0.82853E+00  0.10045E-01  0.25000E-01
  0.82853E+00  0.10045E-01  0.44365E-01
  0.79838E+00  0.10357E-01  0.56351E-02
  0.79838E+00  0.10357E-01  0.25000E-01
  0.79838E+00  0.10357E-01  0.44365E-01
  0.79838E+00  0.10201E-01  0.56351E-02
  0.79838E+00  0.10201E-01  0.25000E-01
  0.79838E+00  0.10201E-01  0.44365E-01
  0.79838E+00  0.10045E-01  0.56351E-02
  0.79838E+00  0.10045E-01  0.25000E-01
  0.79838E+00  0.10045E-01  0.44365E-01
  0.76823E+00  0.10357E-01  0.56351E-02
  0.76823E+00  0.10357E-01  0.25000E-01
  0.76823E+00  0.10357E-01  0.44365E-01
  0.76823E+00  0.10201E-01  0.56351E-02
  0.76823E+00  0.10201E-01  0.25000E-01
  0.76823E+00  0.10201E-01  0.44365E-01
  0.76823E+00  0.10045E-01  0.56351E-02
  0.76823E+00  0.10045E-01  0.25000E-01
  0.76823E+00  0.10045E-01  0.44365E-01
  0.82853E+00  0.10357E-01  0.55635E-01
  0.82853E+00  0.10357E-01  0.75000E-01
  0.82853E+00  0.10357E-01  0.94365E-01
  0.82853E+00  0.10201E-01  0.55635E-01
  0.82853E+00  0.10201E-01  0.75000E-01
  0.82853E+00  0.10201E-01  0.94365E-01
  0.82853E+00  0.10045E-01  0.55635E-01
  0.82853E+00  0.10045E-01  0.75000E-01
  0.82853E+00  0.10045E-01  0.94365E-01
  0.79838E+00  0.10357E-01  0.55635E-01
  0.79838E+00  0.10357E-01  0.75000E-01
  0.79838E+00  0.10357E-01  0.94365E-01
  0.79838E+00  0.10201E-01  0.55635E-01
  0.79838E+00  0.10201E-01  0.75000E-01
  0.79838E+00  0.10201E-01  0.94365E-01
  0.79838E+00  0.10045E-01  0.55635E-01
  0.79838E+00  0.10045E-01  0.75000E-01
  0.79838E+00  0.10045E-01  0.94365E-01
  0.76823E+00  0.10357E-01  0.55635E-01
  0.76823E+00  0.10357E-01  0.75000E-01
  0.76823E+00  0.10357E-01  0.94365E-01
  0.76823E+00  0.10201E-01  0.55635E-01
  0.76823E+00  0.10201E-01  0.75000E-01
  0.76823E+00  0.10201E-01  0.94365E-01
  0.76823E+00  0.10045E-01  0.55635E-01
  0.76823E+00  0.10045E-01  0.75000E-01
  0.76823E+00  0.10045E-01  0.94365E-01
  0.82853E+00  0.10450E-01  0.56351E-02
  0.82853E+00  0.10450E-01  0.25000E-01
  0.82853E+00  0.10450E-01  0.44365E-01
  0.79838E+00  0.10450E-01  0.56351E-02
  0.79838E+00  0.10450E-01  0.25000E-01
  0.79838E+00  0.10450E-01  0.44365E-01
  0.76823E+00  0.10450E-01  0.56351E-02
  0.76823E+00  0.10450E-01  0.25000E-01
  0.76823E+00  0.10450E-01  0.44365E-01
  0.82853E+00  0.10450E-01  0.55635E-01
  0.82853E+00  0.10450E-01  0.75000E-01
  0.82853E+00  0.10450E-01  0.94365E-01
  0.79838E+00  0.10450E-01  0.55635E-01
  0.79838E+00  0.10450E-01  0.75000E-01
  0.79838E+00  0.10450E-01  0.94365E-01
  0.76823E+00  0.10450E-01  0.55635E-01
  0.76823E+00  0.10450E-01  0.75000E-01
  0.76823E+00  0.10450E-01  0.94365E-01
  0.75149E+00  0.10357E-01  0.56351E-02
  0.75149E+00  0.10357E-01  0.25000E-01
  0.75149E+00  0.10357E-01  0.44365E-01
  0.75149E+00  0.10201E-01  0.56351E-02
  0.75149E+00  0.10201E-01  0.25000E-01
  0.75149E+00  0.10201E-01  0.44365E-01
  0.75149E+00  0.10045E-01  0.56351E-02
  0.75149E+00  0.10045E-01  0.25000E-01
  0.75149E+00  0.10045E-01  0.44365E-01
  0.72408E+00  0.10357E-01  0.56351E-02
  0.72408E+00  0.10357E-01  0.25000E-01
  0.72408E+00  0.10357E-01  0.44365E-01
  0.72408E+00  0.10201E-01  0.56351E-02
  0.72408E+00  0.10201E-01  0.25000E-01
  0.72408E+00  0.10201E-01  0.44365E-01
  0.72408E+00  0.10045E-01  0.56351E-02
  0.72408E+00  0.10045E-01  0.25000E-01
  0.72408E+00  0.10045E-01  0.44365E-01
  0.69668E+00  0.10357E-01  0.56351E-02
  0.69668E+00  0.10357E-01  0.25000E-01
  0.69668E+00  0.10357E-01  0.44365E-01
  0.69668E+00  0.10201E-01  0.56351E-02
  0.69668E+00  0.10201E-01  0.25000E-01
  0.69668E+00  0.10201E-01  0.44365E-01
  0.69668E+00  0.10045E-01  0.56351E-02
  0.69668E+00  0.10045E-01  0.25000E-01
  0.69668E+00  0.10045E-01  0.44365E-01
  0.75149E+00  0.10357E-01  0.55635E-01