 TITLE = "Partition objects"
VARIABLES = "x", "y", "z"
ZONE NODES=3, ELEMENTS = 1, DATAPACKING=POINT, ZONETYPE=FETRIANGLE
  0.37280E+01  0.13814E+01  0.78052E+00
  0.37280E+01  0.13964E+01  0.83458E+00
  0.37280E+01  0.13771E+01  0.77780E+00
 1 2 3
ZONE NODES=3, ELEMENTS = 1, DATAPACKING=POINT, ZONETYPE=FETRIANGLE
  0.37280E+01  0.13771E+01  0.77780E+00
  0.37280E+01  0.13964E+01  0.83458E+00
  0.37280E+01  0.13942E+01  0.83910E+00
 1 2 3
ZONE NODES=3, ELEMENTS = 1, DATAPACKING=POINT, ZONETYPE=FETRIANGLE
  0.37280E+01  0.13771E+01  0.77780E+00
  0.37280E+01  0.13942E+01  0.83910E+00
  0.37280E+01  0.13726E+01  0.77557E+00
 1 2 3
ZONE NODES=3, ELEMENTS = 1, DATAPACKING=POINT, ZONETYPE=FETRIANGLE
  0.37280E+01  0.13726E+01  0.77557E+00
  0.37280E+01  0.13942E+01  0.83910E+00
  0.37280E+01  0.13915E+01  0.84335E+00
 1 2 3
ZONE NODES=3, ELEMENTS = 1, DATAPACKING=POINT, ZONETYPE=FETRIANGLE
  0.37280E+01  0.13726E+01  0.77557E+00
  0.37280E+01  0.13915E+01  0.84335E+00
  0.37280E+01  0.13678E+01  0.77387E+00
 1 2 3
ZONE NODES=3, ELEMENTS = 1, DATAPACKING=POINT, ZONETYPE=FETRIANGLE
  0.37280E+01  0.13678E+01  0.77387E+00
  0.37280E+01  0.13915E+01  0.84335E+00
  0.37280E+01  0.13883E+01  0.84727E+00
 1 2 3
ZONE NODES=3, ELEMENTS = 1, DATAPACKING=POINT, ZONETYPE=FETRIANGLE
  0.37280E+01  0.13678E+01  0.77387E+00
  0.37280E+01  0.13883E+01  0.84727E+00
  0.37280E+01  0.13629E+01  0.77270E+00
 1 2 3
ZONE NODES=3, ELEMENTS = 1, DATAPACKING=POINT, ZONETYPE=FETRIANGLE
  0.37280E+01  0.13629E+01  0.77270E+00
  0.37280E+01  0.13883E+01  0.84727E+00
  0.37280E+01  0.13847E+01  0.85081E+00
 1 2 3
ZONE NODES=3, ELEMENTS = 1, DATAPACKING=POINT, ZONETYPE=FETRIANGLE
  0.37280E+01  0.13629E+01  0.77270E+00
  0.37280E+01  0.13847E+01  0.85081E+00
  0.37280E+01  0.13579E+01  0.77209E+00
 1 2 3
ZONE NODES=3, ELEMENTS = 1, DATAPACKING=POINT, ZONETYPE=FETRIANGLE
  0.37280E+01  0.13579E+01  0.77209E+00
  0.37280E+01  0.13847E+01  0.85081E+00
  0.37280E+01  0.13807E+01  0.85392E+00
 1 2 3
ZONE NODES=3, ELEMENTS = 1, DATAPACKING=POINT, ZONETYPE=FETRIANGLE
  0.37280E+01  0.13579E+01  0.77209E+00
  0.37280E+01  0.13807E+01  0.85392E+00
  0.37280E+01  0.13529E+01  0.77205E+00
 1 2 3
ZONE NODES=3, ELEMENTS = 1, DATAPACKING=POINT, ZONETYPE=FETRIANGLE
  0.37280E+01  0.13529E+01  0.77205E+00
  0.37280E+01  0.13807E+01  0.85392E+00
  0.37280E+01  0.13764E+01  0.85657E+00
 1 2 3
ZONE NODES=3, ELEMENTS = 1, DATAPACKING=POINT, ZONETYPE=FETRIANGLE
  0.37280E+01  0.13529E+01  0.77205E+00
  0.37280E+01  0.13764E+01  0.85657E+00
  0.37280E+01  0.13478E+01  0.77257E+00
 1 2 3
ZONE NODES=3, ELEMENTS = 1, DATAPACKING=POINT, ZONETYPE=FETRIANGLE
  0.37280E+01  0.13478E+01  0.77257E+00
  0.37280E+01  0.13764E+01  0.85657E+00
  0.37280E+01  0.13719E+01  0.85872E+00
 1 2 3
ZONE NODES=3, ELEMENTS = 1, DATAPACKING=POINT, ZONETYPE=FETRIANGLE
  0.37280E+01  0.13478E+01  0.77257E+00
  0.37280E+01  0.13719E+01  0.85872E+00
  0.37280E+01  0.13429E+01  0.77365E+00
 1 2 3
ZONE NODES=3, ELEMENTS = 1, DATAPACKING=POINT, ZONETYPE=FETRIANGLE
  0.37280E+01  0.13429E+01  0.77365E+00
  0.37280E+01  0.13719E+01  0.85872E+00
  0.37280E+01  0.13671E+01  0.86035E+00
 1 2 3
ZONE NODES=3, ELEMENTS = 1, DATAPACKING=POINT, ZONETYPE=FETRIANGLE
  0.37280E+01  0.13429E+01  0.77365E+00
  0.37280E+01  0.13671E+01  0.86035E+00
  0.37280E+01  0.13381E+01  0.77528E+00
 1 2 3
ZONE NODES=3, ELEMENTS = 1, DATAPACKING=POINT, ZONETYPE=FETRIANGLE
  0.37280E+01  0.13381E+01  0.77528E+00
  0.37280E+01  0.13671E+01  0.86035E+00
  0.37280E+01  0.13622E+01  0.86143E+00
 1 2 3
ZONE NODES=3, ELEMENTS = 1, DATAPACKING=POINT, ZONETYPE=FETRIANGLE
  0.37280E+01  0.13381E+01  0.77528E+00
  0.37280E+01  0.13622E+01  0.86143E+00
  0.37280E+01  0.13336E+01  0.77743E+00
 1 2 3
ZONE NODES=3, ELEMENTS = 1, DATAPACKING=POINT, ZONETYPE=FETRIANGLE
  0.37280E+01  0.13336E+01  0.77743E+00
  0.37280E+01  0.13622E+01  0.86143E+00
  0.37280E+01  0.13571E+01  0.86195E+00
 1 2 3
ZONE NODES=3, ELEMENTS = 1, DATAPACKING=POINT, ZONETYPE=FETRIANGLE
  0.37280E+01  0.13336E+01  0.77743E+00
  0.37280E+01  0.13571E+01  0.86195E+00
  0.37280E+01  0.13293E+01  0.78008E+00
 1 2 3
ZONE NODES=3, ELEMENTS = 1, DATAPACKING=POINT, ZONETYPE=FETRIANGLE
  0.37280E+01  0.13293E+01  0.78008E+00
  0.37280E+01  0.13571E+01  0.86195E+00
  0.37280E+01  0.13521E+01  0.86191E+00
 1 2 3
ZONE NODES=3, ELEMENTS = 1, DATAPACKING=POINT, ZONETYPE=FETRIANGLE
  0.37280E+01  0.13293E+01  0.78008E+00
  0.37280E+01  0.13521E+01  0.86191E+00
  0.37280E+01  0.13253E+01  0.78319E+00
 1 2 3
ZONE NODES=3, ELEMENTS = 1, DATAPACKING=POINT, ZONETYPE=FETRIANGLE
  0.37280E+01  0.13253E+01  0.78319E+00
  0.37280E+01  0.13521E+01  0.86191E+00
  0.37280E+01  0.13471E+01  0.86130E+00
 1 2 3
ZONE NODES=3, ELEMENTS = 1, DATAPACKING=POINT, ZONETYPE=FETRIANGLE
  0.37280E+01  0.13253E+01  0.78319E+00
  0.37280E+01  0.13471E+01  0.86130E+00
  0.37280E+01  0.13217E+01  0.78673E+00
 1 2 3
ZONE NODES=3, ELEMENTS = 1, DATAPACKING=POINT, ZONETYPE=FETRIANGLE
  0.37280E+01  0.13217E+01  0.78673E+00
  0.37280E+01  0.13471E+01  0.86130E+00
  0.37280E+01  0.13422E+01  0.86013E+00
 1 2 3
ZONE NODES=3, ELEMENTS = 1, DATAPACKING=POINT, ZONETYPE=FETRIANGLE
  0.37280E+01  0.13217E+01  0.78673E+00
  0.37280E+01  0.13422E+01  0.86013E+00
  0.37280E+01  0.13185E+01  0.79065E+00
 1 2 3
ZONE NODES=3, ELEMENTS = 1, DATAPACKING=POINT, ZONETYPE=FETRIANGLE
  0.37280E+01  0.13185E+01  0.79065E+00
  0.37280E+01  0.13422E+01  0.86013E+00
  0.37280E+01  0.13374E+01  0.85843E+00
 1 2 3
ZONE NODES=3, ELEMENTS = 1, DATAPACKING=POINT, ZONETYPE=FETRIANGLE
  0.37280E+01  0.13185E+01  0.79065E+00
  0.37280E+01  0.13374E+01  0.85843E+00
  0.37280E+01  0.13158E+01  0.79490E+00
 1 2 3
ZONE NODES=3, ELEMENTS = 1, DATAPACKING=POINT, ZONETYPE=FETRIANGLE
  0.37280E+01  0.13158E+01  0.79490E+00
  0.37280E+01  0.13374E+01  0.85843E+00
  0.37280E+01  0.13329E+01  0.85620E+00
 1 2 3
ZONE NODES=3, ELEMENTS = 1, DATAPACKING=POINT, ZONETYPE=FETRIANGLE
  0.37280E+01  0.13158E+01  0.79490E+00
  0.37280E+01  0.13329E+01  0.85620E+00
  0.37280E+01  0.13136E+01  0.79942E+00
 1 2 3
ZONE NODES=3, ELEMENTS = 1, DATAPACKING=POINT, ZONETYPE=FETRIANGLE
  0.37280E+01  0.13136E+01  0.79942E+00
  0.37280E+01  0.13329E+01  0.85620E+00
  0.37280E+01  0.13286E+01  0.85348E+00
 1 2 3
ZONE NODES=3, ELEMENTS = 1, DATAPACKING=POINT, ZONETYPE=FETRIANGLE
  0.37280E+01  0.13136E+01  0.79942E+00
  0.37280E+01  0.13286E+01  0.85348E+00
  0.37280E+01  0.13119E+01  0.80417E+00
 1 2 3
ZONE NODES=3, ELEMENTS = 1, DATAPACKING=POINT, ZONETYPE=FETRIANGLE
  0.37280E+01  0.13119E+01  0.80417E+00
  0.37280E+01  0.13286E+01  0.85348E+00
  0.37280E+01  0.13247E+01  0.85030E+00
 1 2 3
ZONE NODES=3, ELEMENTS = 1, DATAPACKING=POINT, ZONETYPE=FETRIANGLE
  0.37280E+01  0.13119E+01  0.80417E+00
  0.37280E+01  0.13247E+01  0.85030E+00
  0.37280E+01  0.13107E+01  0.80908E+00
 1 2 3
ZONE NODES=3, ELEMENTS = 1, DATAPACKING=POINT, ZONETYPE=FETRIANGLE
  0.37280E+01  0.13107E+01  0.80908E+00
  0.37280E+01  0.13247E+01  0.85030E+00
  0.37280E+01  0.13212E+01  0.84670E+00
 1 2 3
ZONE NODES=3, ELEMENTS = 1, DATAPACKING=POINT, ZONETYPE=FETRIANGLE
  0.37280E+01  0.13107E+01  0.80908E+00
  0.37280E+01  0.13212E+01  0.84670E+00
  0.37280E+01  0.13101E+01  0.81409E+00
 1 2 3
ZONE NODES=3, ELEMENTS = 1, DATAPACKING=POINT, ZONETYPE=FETRIANGLE
  0.37280E+01  0.13101E+01  0.81409E+00
  0.37280E+01  0.13212E+01  0.84670E+00
  0.37280E+01  0.13181E+01  0.84272E+00
 1 2 3
ZONE NODES=3, ELEMENTS = 1, DATAPACKING=POINT, ZONETYPE=FETRIANGLE
  0.37280E+01  0.13101E+01  0.81409E+00
  0.37280E+01  0.13181E+01  0.84272E+00
  0.37280E+01  0.13101E+01  0.81914E+00
 1 2 3
ZONE NODES=3, ELEMENTS = 1, DATAPACKING=POINT, ZONETYPE=FETRIANGLE
  0.37280E+01  0.13101E+01  0.81914E+00
  0.37280E+01  0.13181E+01  0.84272E+00
  0.37280E+01  0.13154E+01  0.83843E+00
 1 2 3
ZONE NODES=3, ELEMENTS = 1, DATAPACKING=POINT, ZONETYPE=FETRIANGLE
  0.37280E+01  0.13101E+01  0.81914E+00
  0.37280E+01  0.13154E+01  0.83843E+00
  0.37280E+01  0.13106E+01  0.82416E+00
 1 2 3
ZONE NODES=3, ELEMENTS = 1, DATAPACKING=POINT, ZONETYPE=FETRIANGLE
  0.37280E+01  0.13106E+01  0.82416E+00
  0.37280E+01  0.13154E+01  0.83843E+00
  0.37280E+01  0.13133E+01  0.83386E+00
 1 2 3
ZONE NODES=3, ELEMENTS = 1, DATAPACKING=POINT, ZONETYPE=FETRIANGLE
  0.37280E+01  0.13106E+01  0.82416E+00
  0.37280E+01  0.13133E+01  0.83386E+00
  0.37280E+01  0.13117E+01  0.82909E+00
 1 2 3
ZONE NODES=3, ELEMENTS = 1, DATAPACKING=POINT, ZONETYPE=FETRIANGLE
  0.37280E+01  0.13964E+01  0.83458E+00
  0.37280E+01  0.13814E+01  0.78052E+00
  0.37280E+01  0.13981E+01  0.82983E+00
 1 2 3
ZONE NODES=3, ELEMENTS = 1, DATAPACKING=POINT, ZONETYPE=FETRIANGLE
  0.37280E+01  0.13981E+01  0.82983E+00
  0.37280E+01  0.13814E+01  0.78052E+00
  0.37280E+01  0.13853E+01  0.78370E+00
 1 2 3
ZONE NODES=3, ELEMENTS = 1, DATAPACKING=POINT, ZONETYPE=FETRIANGLE
  0.37280E+01  0.13981E+01  0.82983E+00
  0.37280E+01  0.13853E+01  0.78370E+00
  0.37280E+01  0.13993E+01  0.82492E+00
 1 2 3
ZONE NODES=3, ELEMENTS = 1, DATAPACKING=POINT, ZONETYPE=FETRIANGLE
  0.37280E+01  0.13993E+01  0.82492E+00
  0.37280E+01  0.13853E+01  0.78370E+00
  0.37280E+01  0.13888E+01  0.78730E+00
 1 2 3
ZONE NODES=3, ELEMENTS = 1, DATAPACKING=POINT, ZONETYPE=FETRIANGLE
  0.37280E+01  0.13993E+01  0.82492E+00
  0.37280E+01  0.13888E+01  0.78730E+00
  0.37280E+01  0.13999E+01  0.81991E+00
 1 2 3
ZONE NODES=3, ELEMENTS = 1, DATAPACKING=POINT, ZONETYPE=FETRIANGLE
  0.37280E+01  0.13999E+01  0.81991E+00
  0.37280E+01  0.13888E+01  0.78730E+00
  0.37280E+01  0.13919E+01  0.79128E+00
 1 2 3
ZONE NODES=3, ELEMENTS = 1, DATAPACKING=POINT, ZONETYPE=FETRIANGLE
  0.37280E+01  0.13999E+01  0.81991E+00
  0.37280E+01  0.13919E+01  0.79128E+00
  0.37280E+01  0.13999E+01  0.81486E+00
 1 2 3
ZONE NODES=3, ELEMENTS = 1, DATAPACKING=POINT, ZONETYPE=FETRIANGLE
  0.37280E+01  0.13999E+01  0.81486E+00
  0.37280E+01  0.13919E+01  0.79128E+00
  0.37280E+01  0.13946E+01  0.79557E+00
 1 2 3
ZONE NODES=3, ELEMENTS = 1, DATAPACKING=POINT, ZONETYPE=FETRIANGLE
  0.37280E+01  0.13999E+01  0.81486E+00
  0.37280E+01  0.13946E+01  0.79557E+00
  0.37280E+01  0.13994E+01  0.80984E+00
 1 2 3
ZONE NODES=3, ELEMENTS = 1, DATAPACKING=POINT, ZONETYPE=FETRIANGLE
  0.37280E+01  0.13994E+01  0.80984E+00
  0.37280E+01  0.13946E+01  0.79557E+00
  0.37280E+01  0.13967E+01  0.80014E+00
 1 2 3
ZONE NODES=3, ELEMENTS = 1, DATAPACKING=POINT, ZONETYPE=FETRIANGLE
  0.37280E+01  0.13994E+01  0.80984E+00
  0.37280E+01  0.13967E+01  0.80014E+00
  0.37280E+01  0.13983E+01  0.80491E+00
 1 2 3
ZONE NODES=3, ELEMENTS = 1, DATAPACKING=POINT, ZONETYPE=FETRIANGLE
  0.36579E+01  0.13561E+01  0.76581E+00
  0.36585E+01  0.13580E+01  0.77210E+00
  0.36600E+01  0.13563E+01  0.76577E+00
 1 2 3
ZONE NODES=3, ELEMENTS = 1, DATAPACKING=POINT, ZONETYPE=FETRIANGLE
  0.36600E+01  0.13563E+01  0.76577E+00
  0.36585E+01  0.13580E+01  0.77210E+00
  0.36600E+01  0.13581E+01  0.77210E+00
 1 2 3
ZONE NODES=3, ELEMENTS = 1, DATAPACKING=POINT, ZONETYPE=FETRIANGLE
  0.36600E+01  0.13563E+01  0.76577E+00
  0.36600E+01  0.13581E+01  0.77210E+00
  0.36614E+01  0.13580E+01  0.77210E+00
 1 2 3
ZONE NODES=3, ELEMENTS = 1, DATAPACKING=POINT, ZONETYPE=FETRIANGLE
  0.36585E+01  0.13580E+01  0.77210E+00
  0.36579E+01  0.13561E+01  0.76581E+00
  0.36570E+01  0.13577E+01  0.77208E+00
 1 2 3
ZONE NODES=3, ELEMENTS = 1, DATAPACKING=POINT, ZONETYPE=FETRIANGLE
  0.36570E+01  0.13577E+01  0.77208E+00
  0.36579E+01  0.13561E+01  0.76581E+00
  0.36558E+01  0.13557E+01  0.76593E+00
 1 2 3
ZONE NODES=3, ELEMENTS = 1, DATAPACKING=POINT, ZONETYPE=FETRIANGLE
  0.36570E+01  0.13577E+01  0.77208E+00
  0.36558E+01  0.13557E+01  0.76593E+00
  0.36556E+01  0.13574E+01  0.77206E+00
 1 2 3
ZONE NODES=3, ELEMENTS = 1, DATAPACKING=POINT, ZONETYPE=FETRIANGLE
  0.36556E+01  0.13574E+01  0.77206E+00
  0.36558E+01  0.13557E+01  0.76593E+00
  0.36542E+01  0.13568E+01  0.77204E+00
 1 2 3
ZONE NODES=3, ELEMENTS = 1, DATAPACKING=POINT, ZONETYPE=FETRIANGLE
  0.36542E+01  0.13568E+01  0.77204E+00
  0.36558E+01  0.13557E+01  0.76593E+00
  0.36539E+01  0.13550E+01  0.76612E+00
 1 2 3
ZONE NODES=3, ELEMENTS = 1, DATAPACKING=POINT, ZONETYPE=FETRIANGLE
  0.36542E+01  0.13568E+01  0.77204E+00
  0.36539E+01  0.13550E+01  0.76612E+00
  0.36529E+01  0.13562E+01  0.77202E+00
 1 2 3
ZONE NODES=3, ELEMENTS = 1, DATAPACKING=POINT, ZONETYPE=FETRIANGLE
  0.36529E+01  0.13562E+01  0.77202E+00
  0.36539E+01  0.13550E+01  0.76612E+00
  0.36514E+01  0.13537E+01  0.76649E+00
 1 2 3
ZONE NODES=3, ELEMENTS = 1, DATAPACKING=POINT, ZONETYPE=FETRIANGLE
  0.36529E+01  0.13562E+01  0.77202E+00
  0.36514E+01  0.13537E+01  0.76649E+00
  0.36516E+01  0.13554E+01  0.77201E+00
 1 2 3
ZONE NODES=3, ELEMENTS = 1, DATAPACKING=POINT, ZONETYPE=FETRIANGLE
  0.36516E+01  0.13554E+01  0.77201E+00
  0.36514E+01  0.13537E+01  0.76649E+00
  0.36494E+01  0.13535E+01  0.77202E+00
 1 2 3
ZONE NODES=3, ELEMENTS = 1, DATAPACKING=POINT, ZONETYPE=FETRIANGLE
  0.36494E+01  0.13535E+01  0.77202E+00
  0.36514E+01  0.13537E+01  0.76649E+00
  0.36493E+01  0.13520E+01  0.76697E+00
 1 2 3
ZONE NODES=3, ELEMENTS = 1, DATAPACKING=POINT, ZONETYPE=FETRIANGLE
  0.36494E+01  0.13535E+01  0.77202E+00
  0.36493E+01  0.13520E+01  0.76697E+00
  0.36475E+01  0.13512E+01  0.77214E+00
 1 2 3
ZONE NODES=3, ELEMENTS = 1, DATAPACKING=POINT, ZONETYPE=FETRIANGLE
  0.36475E+01  0.13512E+01  0.77214E+00
  0.36493E+01  0.13520E+01  0.76697E+00
  0.36476E+01  0.13499E+01  0.76754E+00
 1 2 3
ZONE NODES=3, ELEMENTS = 1, DATAPACKING=POINT, ZONETYPE=FETRIANGLE
  0.36475E+01  0.13512E+01  0.77214E+00
  0.36476E+01  0.13499E+01  0.76754E+00
  0.36468E+01  0.13499E+01  0.77227E+00
 1 2 3
ZONE NODES=3, ELEMENTS = 1, DATAPACKING=POINT, ZONETYPE=FETRIANGLE
  0.36468E+01  0.13499E+01  0.77227E+00
  0.36476E+01  0.13499E+01  0.76754E+00
  0.36462E+01  0.13476E+01  0.76819E+00
 1 2 3
ZONE NODES=3, ELEMENTS = 1, DATAPACKING=POINT, ZONETYPE=FETRIANGLE
  0.36468E+01  0.13499E+01  0.77227E+00
  0.36462E+01  0.13476E+01  0.76819E+00
  0.36462E+01  0.13486E+01  0.77244E+00
 1 2 3
ZONE NODES=3, ELEMENTS = 1, DATAPACKING=POINT, ZONETYPE=FETRIANGLE
  0.36462E+01  0.13486E+01  0.77244E+00
  0.36462E+01  0.13476E+01  0.76819E+00
  0.36457E+01  0.13472E+01  0.77267E+00
 1 2 3
ZONE NODES=3, ELEMENTS = 1, DATAPACKING=POINT, ZONETYPE=FETRIANGLE
  0.36457E+01  0.13472E+01  0.77267E+00
  0.36462E+01  0.13476E+01  0.76819E+00
  0.36454E+01  0.13451E+01  0.76890E+00
 1 2 3
ZONE NODES=3, ELEMENTS = 1, DATAPACKING=POINT, ZONETYPE=FETRIANGLE
  0.36457E+01  0.13472E+01  0.77267E+00
  0.36454E+01  0.13451E+01  0.76890E+00
  0.36453E+01  0.13458E+01  0.77295E+00
 1 2 3
ZONE NODES=3, ELEMENTS = 1, DATAPACKING=POINT, ZONETYPE=FETRIANGLE
  0.36453E+01  0.13458E+01  0.77295E+00
  0.36454E+01  0.13451E+01  0.76890E+00
  0.36451E+01  0.13443E+01  0.77328E+00
 1 2 3
ZONE NODES=3, ELEMENTS = 1, DATAPACKING=POINT, ZONETYPE=FETRIANGLE
  0.36451E+01  0.13443E+01  0.77328E+00
  0.36454E+01  0.13451E+01  0.76890E+00
  0.36450E+01  0.13424E+01  0.76964E+00
 1 2 3
ZONE NODES=3, ELEMENTS = 1, DATAPACKING=POINT, ZONETYPE=FETRIANGLE
  0.36451E+01  0.13443E+01  0.77328E+00
  0.36450E+01  0.13424E+01  0.76964E+00
  0.36450E+01  0.13429E+01  0.77365E+00
 1 2 3
ZONE NODES=3, ELEMENTS = 1, DATAPACKING=POINT, ZONETYPE=FETRIANGLE
  0.36450E+01  0.13429E+01  0.77365E+00
  0.36450E+01  0.13424E+01  0.76964E+00
  0.36452E+01  0.13398E+01  0.77038E+00
 1 2 3
ZONE NODES=3, ELEMENTS = 1, DATAPACKING=POINT, ZONETYPE=FETRIANGLE
  0.36450E+01  0.13429E+01  0.77365E+00
  0.36452E+01  0.13398E+01  0.77038E+00
  0.36453E+01  0.13402E+01  0.77450E+00
 1 2 3
ZONE NODES=3, ELEMENTS = 1, DATAPACKING=POINT, ZONETYPE=FETRIANGLE
  0.36453E+01  0.13402E+01  0.77450E+00
  0.36452E+01  0.13398E+01  0.77038E+00
  0.36458E+01  0.13372E+01  0.77110E+00
 1 2 3
ZONE NODES=3, ELEMENTS = 1, DATAPACKING=POINT, ZONETYPE=FETRIANGLE
  0.36453E+01  0.13402E+01  0.77450E+00
  0.36458E+01  0.13372E+01  0.77110E+00
  0.36461E+01  0.13376E+01  0.77547E+00
 1 2 3
ZONE NODES=3, ELEMENTS = 1, DATAPACKING=POINT, ZONETYPE=FETRIANGLE
  0.36461E+01  0.13376E+01  0.77547E+00
  0.36458E+01  0.13372E+01  0.77110E+00
  0.36469E+01  0.13347E+01  0.77178E+00
 1 2 3
ZONE NODES=3, ELEMENTS = 1, DATAPACKING=POINT, ZONETYPE=FETRIANGLE
  0.36461E+01  0.13376E+01  0.77547E+00
  0.36469E+01  0.13347E+01  0.77178E+00
  0.36474E+01  0.13353E+01  0.77652E+00
 1 2 3
ZONE NODES=3, ELEMENTS = 1, DATAPACKING=POINT, ZONETYPE=FETRIANGLE
  0.36474E+01  0.13353E+01  0.77652E+00
  0.36469E+01  0.13347E+01  0.77178E+00
  0.36485E+01  0.13326E+01  0.77239E+00
 1 2 3
ZONE NODES=3, ELEMENTS = 1, DATAPACKING=POINT, ZONETYPE=FETRIANGLE
  0.36474E+01  0.13353E+01  0.77652E+00
  0.36485E+01  0.13326E+01  0.77239E+00
  0.36491E+01  0.13333E+01  0.77758E+00
 1 2 3
ZONE NODES=3, ELEMENTS = 1, DATAPACKING=POINT, ZONETYPE=FETRIANGLE
  0.36491E+01  0.13333E+01  0.77758E+00
  0.36485E+01  0.13326E+01  0.77239E+00
  0.36494E+01  0.13317E+01  0.77264E+00
 1 2 3
ZONE NODES=3, ELEMENTS = 1, DATAPACKING=POINT, ZONETYPE=FETRIANGLE
  0.36491E+01  0.13333E+01  0.77758E+00
  0.36494E+01  0.13317E+01  0.77264E+00
  0.36503E+01  0.13308E+01  0.77287E+00
 1 2 3
ZONE NODES=3, ELEMENTS = 1, DATAPACKING=POINT, ZONETYPE=FETRIANGLE
  0.36491E+01  0.13333E+01  0.77758E+00
  0.36503E+01  0.13308E+01  0.77287E+00
  0.36513E+01  0.13316E+01  0.77858E+00
 1 2 3
ZONE NODES=3, ELEMENTS = 1, DATAPACKING=POINT, ZONETYPE=FETRIANGLE
  0.36513E+01  0.13316E+01  0.77858E+00
  0.36503E+01  0.13308E+01  0.77287E+00
  0.36513E+01  0.13301E+01  0.77307E+00
 1 2 3
ZONE NODES=3, ELEMENTS = 1, DATAPACKING=POINT, ZONETYPE=FETRIANGLE
  0.36513E+01  0.13316E+01  0.77858E+00
  0.36513E+01  0.13301E+01  0.77307E+00
  0.36523E+01  0.13294E+01  0.77325E+00
 1 2 3
ZONE NODES=3, ELEMENTS = 1, DATAPACKING=POINT, ZONETYPE=FETRIANGLE
  0.36513E+01  0.13316E+01  0.77858E+00
  0.36523E+01  0.13294E+01  0.77325E+00
  0.36526E+01  0.13309E+01  0.77903E+00
 1 2 3
ZONE NODES=3, ELEMENTS = 1, DATAPACKING=POINT, ZONETYPE=FETRIANGLE
  0.36526E+01  0.13309E+01  0.77903E+00
  0.36523E+01  0.13294E+01  0.77325E+00
  0.36534E+01  0.13289E+01  0.77341E+00
 1 2 3
ZONE NODES=3, ELEMENTS = 1, DATAPACKING=POINT, ZONETYPE=FETRIANGLE
  0.36526E+01  0.13309E+01  0.77903E+00
  0.36534E+01  0.13289E+01  0.77341E+00
  0.36540E+01  0.13303E+01  0.77941E+00
 1 2 3
ZONE NODES=3, ELEMENTS = 1, DATAPACKING=POINT, ZONETYPE=FETRIANGLE
  0.36540E+01  0.13303E+01  0.77941E+00
  0.36534E+01  0.13289E+01  0.77341E+00
  0.36545E+01  0.13284E+01  0.77355E+00
 1 2 3
ZONE NODES=3, ELEMENTS = 1, DATAPACKING=POINT, ZONETYPE=FETRIANGLE
  0.36540E+01  0.13303E+01  0.77941E+00
  0.36545E+01  0.13284E+01  0.77355E+00
  0.36554E+01  0.13298E+01  0.77973E+00
 1 2 3
ZONE NODES=3, ELEMENTS = 1, DATAPACKING=POINT, ZONETYPE=FETRIANGLE
  0.36554E+01  0.13298E+01  0.77973E+00
  0.36545E+01  0.13284E+01  0.77355E+00
  0.36570E+01  0.13277E+01  0.77375E+00
 1 2 3
ZONE NODES=3, ELEMENTS = 1, DATAPACKING=POINT, ZONETYPE=FETRIANGLE
  0.36554E+01  0.13298E+01  0.77973E+00
  0.36570E+01  0.13277E+01  0.77375E+00
  0.36569E+01  0.13294E+01  0.77996E+00
 1 2 3
ZONE NODES=3, ELEMENTS = 1, DATAPACKING=POINT, ZONETYPE=FETRIANGLE
  0.36569E+01  0.13294E+01  0.77996E+00
  0.36570E+01  0.13277E+01  0.77375E+00
  0.36584E+01  0.13292E+01  0.78011E+00
 1 2 3
ZONE NODES=3, ELEMENTS = 1, DATAPACKING=POINT, ZONETYPE=FETRIANGLE
  0.36584E+01  0.13292E+01  0.78011E+00
  0.36570E+01  0.13277E+01  0.77375E+00
  0.36596E+01  0.13274E+01  0.77383E+00
 1 2 3
ZONE NODES=3, ELEMENTS = 1, DATAPACKING=POINT, ZONETYPE=FETRIANGLE
  0.36584E+01  0.13292E+01  0.78011E+00
  0.36596E+01  0.13274E+01  0.77383E+00
  0.36600E+01  0.13292E+01  0.78016E+00
 1 2 3
ZONE NODES=3, ELEMENTS = 1, DATAPACKING=POINT, ZONETYPE=FETRIANGLE
  0.36600E+01  0.13292E+01  0.78016E+00
  0.36596E+01  0.13274E+01  0.77383E+00
  0.36614E+01  0.13292E+01  0.78012E+00
 1 2 3
ZONE NODES=3, ELEMENTS = 1, DATAPACKING=POINT, ZONETYPE=FETRIANGLE
  0.36614E+01  0.13292E+01  0.78012E+00
  0.36596E+01  0.13274E+01  0.77383E+00
  0.36622E+01  0.13276E+01  0.77378E+00
 1 2 3
ZONE NODES=3, ELEMENTS = 1, DATAPACKING=POINT, ZONETYPE=FETRIANGLE
  0.36614E+01  0.13292E+01  0.78012E+00
  0.36622E+01  0.13276E+01  0.77378E+00
  0.36629E+01  0.13294E+01  0.77999E+00
 1 2 3
ZONE NODES=3, ELEMENTS = 1, DATAPACKING=POINT, ZONETYPE=FETRIANGLE
  0.36629E+01  0.13294E+01  0.77999E+00
  0.36622E+01  0.13276E+01  0.77378E+00
  0.36648E+01  0.13281E+01  0.77362E+00
 1 2 3
ZONE NODES=3, ELEMENTS = 1, DATAPACKING=POINT, ZONETYPE=FETRIANGLE
  0.36629E+01  0.13294E+01  0.77999E+00
  0.36648E+01  0.13281E+01  0.77362E+00
  0.36643E+01  0.13297E+01  0.77977E+00
 1 2 3
ZONE NODES=3, ELEMENTS = 1, DATAPACKING=POINT, ZONETYPE=FETRIANGLE
  0.36643E+01  0.13297E+01  0.77977E+00
  0.36648E+01  0.13281E+01  0.77362E+00
  0.36658E+01  0.13302E+01  0.77948E+00
 1 2 3
ZONE NODES=3, ELEMENTS = 1, DATAPACKING=POINT, ZONETYPE=FETRIANGLE
  0.36658E+01  0.13302E+01  0.77948E+00
  0.36648E+01  0.13281E+01  0.77362E+00
  0.36672E+01  0.13292E+01  0.77334E+00
 1 2 3
ZONE NODES=3, ELEMENTS = 1, DATAPACKING=POINT, ZONETYPE=FETRIANGLE
  0.36658E+01  0.13302E+01  0.77948E+00
  0.36672E+01  0.13292E+01  0.77334E+00
  0.36671E+01  0.13307E+01  0.77911E+00
 1 2 3
ZONE NODES=3, ELEMENTS = 1, DATAPACKING=POINT, ZONETYPE=FETRIANGLE
  0.36671E+01  0.13307E+01  0.77911E+00
  0.36672E+01  0.13292E+01  0.77334E+00
  0.36684E+01  0.13314E+01  0.77868E+00
 1 2 3
ZONE NODES=3, ELEMENTS = 1, DATAPACKING=POINT, ZONETYPE=FETRIANGLE
  0.36684E+01  0.13314E+01  0.77868E+00
  0.36672E+01  0.13292E+01  0.77334E+00
  0.36694E+01  0.13306E+01  0.77295E+00
 1 2 3
ZONE NODES=3, ELEMENTS = 1, DATAPACKING=POINT, ZONETYPE=FETRIANGLE
  0.36684E+01  0.13314E+01  0.77868E+00
  0.36694E+01  0.13306E+01  0.77295E+00
  0.36706E+01  0.13330E+01  0.77772E+00
 1 2 3
ZONE NODES=3, ELEMENTS = 1, DATAPACKING=POINT, ZONETYPE=FETRIANGLE
  0.36706E+01  0.13330E+01  0.77772E+00
  0.36694E+01  0.13306E+01  0.77295E+00
  0.36713E+01  0.13323E+01  0.77246E+00
 1 2 3
ZONE NODES=3, ELEMENTS = 1, DATAPACKING=POINT, ZONETYPE=FETRIANGLE
  0.36706E+01  0.13330E+01  0.77772E+00
  0.36713E+01  0.13323E+01  0.77246E+00
  0.36724E+01  0.13351E+01  0.77666E+00
 1 2 3
ZONE NODES=3, ELEMENTS = 1, DATAPACKING=POINT, ZONETYPE=FETRIANGLE
  0.36724E+01  0.13351E+01  0.77666E+00
  0.36713E+01  0.13323E+01  0.77246E+00
  0.36728E+01  0.13343E+01  0.77189E+00
 1 2 3
ZONE NODES=3, ELEMENTS = 1, DATAPACKING=POINT, ZONETYPE=FETRIANGLE
  0.36724E+01  0.13351E+01  0.77666E+00
  0.36728E+01  0.13343E+01  0.77189E+00
  0.36732E+01  0.13362E+01  0.77611E+00
 1 2 3
ZONE NODES=3, ELEMENTS = 1, DATAPACKING=POINT, ZONETYPE=FETRIANGLE
  0.36732E+01  0.13362E+01  0.77611E+00
  0.36728E+01  0.13343E+01  0.77189E+00
  0.36740E+01  0.13366E+01  0.77126E+00
 1 2 3
ZONE NODES=3, ELEMENTS = 1, DATAPACKING=POINT, ZONETYPE=FETRIANGLE
  0.36732E+01  0.13362E+01  0.77611E+00
  0.36740E+01  0.13366E+01  0.77126E+00
  0.36738E+01  0.13375E+01  0.77556E+00
 1 2 3
ZONE NODES=3, ELEMENTS = 1, DATAPACKING=POINT, ZONETYPE=FETRIANGLE
  0.36738E+01  0.13375E+01  0.77556E+00
  0.36740E+01  0.13366E+01  0.77126E+00
  0.36744E+01  0.13388E+01  0.77503E+00
 1 2 3
ZONE NODES=3, ELEMENTS = 1, DATAPACKING=POINT, ZONETYPE=FETRIANGLE
  0.36744E+01  0.13388E+01  0.77503E+00
  0.36740E+01  0.13366E+01  0.77126E+00
  0.36747E+01  0.13391E+01  0.77057E+00
 1 2 3
ZONE NODES=3, ELEMENTS = 1, DATAPACKING=POINT, ZONETYPE=FETRIANGLE
  0.36744E+01  0.13388E+01  0.77503E+00
  0.36747E+01  0.13391E+01  0.77057E+00
  0.36747E+01  0.13401E+01  0.77452E+00
 1 2 3
ZONE NODES=3, ELEMENTS = 1, DATAPACKING=POINT, ZONETYPE=FETRIANGLE
  0.36747E+01  0.13401E+01  0.77452E+00
  0.36747E+01  0.13391E+01  0.77057E+00
  0.36749E+01  0.13415E+01  0.77406E+00
 1 2 3
ZONE NODES=3, ELEMENTS = 1, DATAPACKING=POINT, ZONETYPE=FETRIANGLE
  0.36749E+01  0.13415E+01  0.77406E+00
  0.36747E+01  0.13391E+01  0.77057E+00
  0.36750E+01  0.13417E+01  0.76985E+00
 1 2 3
ZONE NODES=3, ELEMENTS = 1, DATAPACKING=POINT, ZONETYPE=FETRIANGLE
  0.36749E+01  0.13415E+01  0.77406E+00
  0.36750E+01  0.13417E+01  0.76985E+00
  0.36750E+01  0.13429E+01  0.77365E+00
 1 2 3
ZONE NODES=3, ELEMENTS = 1, DATAPACKING=POINT, ZONETYPE=FETRIANGLE
  0.36750E+01  0.13429E+01  0.77365E+00
  0.36750E+01  0.13417E+01  0.76985E+00
  0.36749E+01  0.13443E+01  0.77329E+00
 1 2 3
ZONE NODES=3, ELEMENTS = 1, DATAPACKING=POINT, ZONETYPE=FETRIANGLE
  0.36749E+01  0.13443E+01  0.77329E+00
  0.36750E+01  0.13417E+01  0.76985E+00
  0.36748E+01  0.13443E+01  0.76913E+00
 1 2 3
ZONE NODES=3, ELEMENTS = 1, DATAPACKING=POINT, ZONETYPE=FETRIANGLE
  0.36749E+01  0.13443E+01  0.77329E+00
  0.36748E+01  0.13443E+01  0.76913E+00
  0.36747E+01  0.13457E+01  0.77297E+00
 1 2 3
ZONE NODES=3, ELEMENTS = 1, DATAPACKING=POINT, ZONETYPE=FETRIANGLE
  0.36747E+01  0.13457E+01  0.77297E+00
  0.36748E+01  0.13443E+01  0.76913E+00
  0.36744E+01  0.13472E+01  0.77269E+00
 1 2 3
ZONE NODES=3, ELEMENTS = 1, DATAPACKING=POINT, ZONETYPE=FETRIANGLE
  0.36744E+01  0.13472E+01  0.77269E+00
  0.36748E+01  0.13443E+01  0.76913E+00
  0.36741E+01  0.13468E+01  0.76843E+00
 1 2 3
ZONE NODES=3, ELEMENTS = 1, DATAPACKING=POINT, ZONETYPE=FETRIANGLE
  0.36744E+01  0.13472E+01  0.77269E+00
  0.36741E+01  0.13468E+01  0.76843E+00
  0.36738E+01  0.13486E+01  0.77246E+00
 1 2 3
ZONE NODES=3, ELEMENTS = 1, DATAPACKING=POINT, ZONETYPE=FETRIANGLE
  0.36738E+01  0.13486E+01  0.77246E+00
  0.36741E+01  0.13468E+01  0.76843E+00
  0.36730E+01  0.13491E+01  0.76777E+00
 1 2 3
ZONE NODES=3, ELEMENTS = 1, DATAPACKING=POINT, ZONETYPE=FETRIANGLE
  0.36738E+01  0.13486E+01  0.77246E+00
  0.36730E+01  0.13491E+01  0.76777E+00
  0.36732E+01  0.13499E+01  0.77229E+00
 1 2 3
ZONE NODES=3, ELEMENTS = 1, DATAPACKING=POINT, ZONETYPE=FETRIANGLE
  0.36732E+01  0.13499E+01  0.77229E+00
  0.36730E+01  0.13491E+01  0.76777E+00
  0.36724E+01  0.13512E+01  0.77216E+00
 1 2 3
ZONE NODES=3, ELEMENTS = 1, DATAPACKING=POINT, ZONETYPE=FETRIANGLE
  0.36724E+01  0.13512E+01  0.77216E+00
  0.36730E+01  0.13491E+01  0.76777E+00
  0.36714E+01  0.13512E+01  0.76718E+00
 1 2 3
ZONE NODES=3, ELEMENTS = 1, DATAPACKING=POINT, ZONETYPE=FETRIANGLE
  0.36724E+01  0.13512E+01  0.77216E+00
  0.36714E+01  0.13512E+01  0.76718E+00
  0.36706E+01  0.13535E+01  0.77203E+00
 1 2 3
ZONE NODES=3, ELEMENTS = 1, DATAPACKING=POINT, ZONETYPE=FETRIANGLE
  0.36706E+01  0.13535E+01  0.77203E+00
  0.36714E+01  0.13512E+01  0.76718E+00
  0.36695E+01  0.13530E+01  0.76668E+00
 1 2 3
ZONE NODES=3, ELEMENTS = 1, DATAPACKING=POINT, ZONETYPE=FETRIANGLE
  0.36706E+01  0.13535E+01  0.77203E+00
  0.36695E+01  0.13530E+01  0.76668E+00
  0.36684E+01  0.13554E+01  0.77200E+00
 1 2 3
ZONE NODES=3, ELEMENTS = 1, DATAPACKING=POINT, ZONETYPE=FETRIANGLE
  0.36684E+01  0.13554E+01  0.77200E+00
  0.36695E+01  0.13530E+01  0.76668E+00
  0.36674E+01  0.13544E+01  0.76629E+00
 1 2 3
ZONE NODES=3, ELEMENTS = 1, DATAPACKING=POINT, ZONETYPE=FETRIANGLE
  0.36684E+01  0.13554E+01  0.77200E+00
  0.36674E+01  0.13544E+01  0.76629E+00
  0.36671E+01  0.13562E+01  0.77202E+00
 1 2 3
ZONE NODES=3, ELEMENTS = 1, DATAPACKING=POINT, ZONETYPE=FETRIANGLE
  0.36671E+01  0.13562E+01  0.77202E+00
  0.36674E+01  0.13544E+01  0.76629E+00
  0.36658E+01  0.13568E+01  0.77204E+00
 1 2 3
ZONE NODES=3, ELEMENTS = 1, DATAPACKING=POINT, ZONETYPE=FETRIANGLE
  0.36658E+01  0.13568E+01  0.77204E+00
  0.36674E+01  0.13544E+01  0.76629E+00
  0.36650E+01  0.13555E+01  0.76600E+00
 1 2 3
ZONE NODES=3, ELEMENTS = 1, DATAPACKING=POINT, ZONETYPE=FETRIANGLE
  0.36658E+01  0.13568E+01  0.77204E+00
  0.36650E+01  0.13555E+01  0.76600E+00
  0.36643E+01  0.13574E+01  0.77206E+00
 1 2 3
ZONE NODES=3, ELEMENTS = 1, DATAPACKING=POINT, ZONETYPE=FETRIANGLE
  0.36643E+01  0.13574E+01  0.77206E+00
  0.36650E+01  0.13555E+01  0.76600E+00
  0.36625E+01  0.13561E+01  0.76583E+00
 1 2 3
ZONE NODES=3, ELEMENTS = 1, DATAPACKING=POINT, ZONETYPE=FETRIANGLE
  0.36643E+01  0.13574E+01  0.77206E+00
  0.36625E+01  0.13561E+01  0.76583E+00
  0.36629E+01  0.13578E+01  0.77208E+00
 1 2 3
ZONE NODES=3, ELEMENTS = 1, DATAPACKING=POINT, ZONETYPE=FETRIANGLE
  0.36629E+01  0.13578E+01  0.77208E+00
  0.36625E+01  0.13561E+01  0.76583E+00
  0.36614E+01  0.13580E+01  0.77210E+00
 1 2 3
ZONE NODES=3, ELEMENTS = 1, DATAPACKING=POINT, ZONETYPE=FETRIANGLE
  0.36614E+01  0.13580E+01  0.77210E+00
  0.36625E+01  0.13561E+01  0.76583E+00
  0.36600E+01  0.13563E+01  0.76577E+00
 1 2 3
ZONE NODES=3, ELEMENTS = 1, DATAPACKING=POINT, ZONETYPE=FETRIANGLE
  0.36955E+01  0.13801E+01  0.74237E+00
  0.36977E+01  0.13843E+01  0.74122E+00
  0.36939E+01  0.13808E+01  0.73287E+00
 1 2 3
ZONE NODES=3, ELEMENTS = 1, DATAPACKING=POINT, ZONETYPE=FETRIANGLE
  0.36939E+01  0.13808E+01  0.73287E+00
  0.36977E+01  0.13843E+01  0.74122E+00
  0.36960E+01  0.13838E+01  0.73529E+00
 1 2 3
ZONE NODES=3, ELEMENTS = 1, DATAPACKING=POINT, ZONETYPE=FETRIANGLE
  0.36939E+01  0.13808E+01  0.73287E+00
  0.36960E+01  0.13838E+01  0.73529E+00
  0.36942E+01  0.13830E+01  0.72940E+00
 1 2 3
ZONE NODES=3, ELEMENTS = 1, DATAPACKING=POINT, ZONETYPE=FETRIANGLE
  0.36942E+01  0.13830E+01  0.72940E+00
  0.36924E+01  0.13819E+01  0.72357E+00
  0.36939E+01  0.13808E+01  0.73287E+00
 1 2 3
ZONE NODES=3, ELEMENTS = 1, DATAPACKING=POINT, ZONETYPE=FETRIANGLE
  0.36939E+01  0.13808E+01  0.73287E+00
  0.36924E+01  0.13819E+01  0.72357E+00
  0.36907E+01  0.13784E+01  0.72303E+00
 1 2 3
ZONE NODES=3, ELEMENTS = 1, DATAPACKING=POINT, ZONETYPE=FETRIANGLE
  0.36939E+01  0.13808E+01  0.73287E+00
  0.36907E+01  0.13784E+01  0.72303E+00
  0.36912E+01  0.13774E+01  0.72889E+00
 1 2 3
ZONE NODES=3, ELEMENTS = 1, DATAPACKING=POINT, ZONETYPE=FETRIANGLE
  0.36912E+01  0.13774E+01  0.72889E+00
  0.36907E+01  0.13784E+01  0.72303E+00
  0.36884E+01  0.13743E+01  0.72185E+00
 1 2 3
ZONE NODES=3, ELEMENTS = 1, DATAPACKING=POINT, ZONETYPE=FETRIANGLE
  0.36912E+01  0.13774E+01  0.72889E+00
  0.36884E+01  0.13743E+01  0.72185E+00
  0.36905E+01  0.13754E+01  0.73224E+00
 1 2 3
ZONE NODES=3, ELEMENTS = 1, DATAPACKING=POINT, ZONETYPE=FETRIANGLE