# vtk DataFile Version 2.0
sampleSurface
ASCII
DATASET POLYDATA
POINTS 49025 float
-356.5 0 0
-356.5 0 1.75503468513
-356.5 -1.75953948498 0
-356.5 1.75953948498 0
-356.5 -1.75953948498 1.75503468513
-356.5 1.75953948498 1.75503468513
-356.5 0 3.51006937027
-356.5 -3.51907896996 0
-356.5 3.51907896996 0
-356.5 -1.75953948498 3.51006937027
-356.5 1.75953948498 3.51006937027
-356.5 -3.51907896996 1.75503468513
-356.5 3.51907896996 1.75503468513
-356.5 -3.51907896996 3.51006937027
-356.5 3.51907896996 3.51006937027
-356.5 0 5.26510429382
-356.5 -5.27861833572 0
-356.5 5.27861833572 0
-356.5 -1.75953948498 5.26510429382
-356.5 1.75953948498 5.26510429382
-356.5 -5.27861833572 1.75503468513
-356.5 5.27861833572 1.75503468513
-356.5 -3.51907896996 5.26510429382
-356.5 3.51907896996 5.26510429382
-356.5 -5.27861833572 3.51006937027
-356.5 5.27861833572 3.51006937027
-356.5 0 7.02013874054
-356.5 -7.03815793991 0
-356.5 7.03815793991 0
-356.5 -1.75953948498 7.02013874054
-356.5 1.75953948498 7.02013874054
-356.5 -7.03815793991 1.75503468513
-356.5 7.03815793991 1.75503468513
-356.5 -5.27861833572 5.26510429382
-356.5 5.27861833572 5.26510429382
-356.5 -3.51907896996 7.02013874054
-356.5 3.51907896996 7.02013874054
-356.5 -7.03815793991 3.51006937027
-356.5 7.03815793991 3.51006937027
-356.5 0 8.77517318726
-356.5 -5.27861833572 7.02013874054
-356.5 5.27861833572 7.02013874054
-356.5 -7.03815793991 5.26510429382
-356.5 7.03815793991 5.26510429382
-356.5 -8.79769706726 0
-356.5 8.79769706726 0
-356.5 -1.75953948498 8.77517318726
-356.5 1.75953948498 8.77517318726
-356.5 -8.79769706726 1.75503468513
-356.5 8.79769706726 1.75503468513
-356.5 -3.51907896996 8.77517318726
-356.5 3.51907896996 8.77517318726
-356.5 -8.79769706726 3.51006937027
-356.5 8.79769706726 3.51006937027
-356.5 -7.03815793991 7.02013874054
-356.5 7.03815793991 7.02013874054
-356.5 -5.27861833572 8.77517318726
-356.5 5.27861833572 8.77517318726
-356.5 -8.79769706726 5.26510429382
-356.5 8.79769706726 5.26510429382
-356.5 0 10.5302085876
-356.5 -10.5572366714 0
-356.5 10.5572366714 0
-356.5 -1.75953948498 10.5302085876
-356.5 1.75953948498 10.5302085876
-356.5 -10.5572366714 1.75503468513
-356.5 10.5572366714 1.75503468513
-356.5 -3.51907896996 10.5302085876
-356.5 3.51907896996 10.5302085876
-356.5 -10.5572366714 3.51006937027
-356.5 10.5572366714 3.51006937027
-356.5 -7.03815793991 8.77517318726
-356.5 7.03815793991 8.77517318726
-356.5 -8.79769706726 7.02013874054
-356.5 8.79769706726 7.02013874054
-356.5 -5.27861833572 10.5302085876
-356.5 5.27861833572 10.5302085876
-356.5 -10.5572366714 5.26510429382
-356.5 10.5572366714 5.26510429382
-356.5 0 12.2852430344
-356.5 -12.3167762756 0
-356.5 12.3167762756 0
-356.5 -1.75953948498 12.2852430344
-356.5 1.75953948498 12.2852430344
-356.5 -8.79769706726 8.77517318726
-356.5 8.79769706726 8.77517318726
-356.5 -12.3167762756 1.75503468513
-356.5 12.3167762756 1.75503468513
-356.5 -7.03815793991 10.5302085876
-356.5 7.03815793991 10.5302085876
-356.5 -10.5572366714 7.02013874054
-356.5 10.5572366714 7.02013874054
-356.5 -3.51907896996 12.2852430344
-356.5 3.51907896996 12.2852430344
-356.5 -12.3167762756 3.51006937027
-356.5 12.3167762756 3.51006937027
-356.5 -5.27861833572 12.2852430344
-356.5 5.27861833572 12.2852430344
-356.5 -12.3167762756 5.26510429382
-356.5 12.3167762756 5.26510429382
-356.5 -8.79769706726 10.5302085876
-356.5 8.79769706726 10.5302085876
-356.5 -10.5572366714 8.77517318726
-356.5 10.5572366714 8.77517318726
-356.5 0 14.0402774811
-356.5 -14.0763158798 0
-356.5 14.0763158798 0
-356.5 -1.75953948498 14.0402774811
-356.5 1.75953948498 14.0402774811
-356.5 -7.03815793991 12.2852430344
-356.5 7.03815793991 12.2852430344
-356.5 -12.3167762756 7.02013874054
-356.5 12.3167762756 7.02013874054
-356.5 -14.0763158798 1.75503468513
-356.5 14.0763158798 1.75503468513
-356.5 -3.51907896996 14.0402774811
-356.5 3.51907896996 14.0402774811
-356.5 -14.0763158798 3.51006937027
-356.5 14.0763158798 3.51006937027
-356.5 -10.5572366714 10.5302085876
-356.5 10.5572366714 10.5302085876
-356.5 -5.27861833572 14.0402774811
-356.5 5.27861833572 14.0402774811
-356.5 -14.0763158798 5.26510429382
-356.5 14.0763158798 5.26510429382
-356.5 -8.79769706726 12.2852430344
-356.5 8.79769706726 12.2852430344
-356.5 -12.3167762756 8.77517318726
-356.5 12.3167762756 8.77517318726
-356.5 -7.03815793991 14.0402774811
-356.5 7.03815793991 14.0402774811
-356.5 -14.0763158798 7.02013874054
-356.5 14.0763158798 7.02013874054
-356.5 0 15.7953128815
-356.5 -15.835855484 0
-356.5 15.835855484 0
-356.5 -1.75953948498 15.7953128815
-356.5 1.75953948498 15.7953128815
-356.5 -15.835855484 1.75503468513
-356.5 15.835855484 1.75503468513
-356.5 -3.51907896996 15.7953128815
-356.5 3.51907896996 15.7953128815
-356.5 -10.5572366714 12.2852430344
-356.5 10.5572366714 12.2852430344
-356.5 -12.3167762756 10.5302085876
-356.5 12.3167762756 10.5302085876
-356.5 -15.835855484 3.51006937027
-356.5 15.835855484 3.51006937027
-356.5 -8.79769706726 14.0402774811
-356.5 8.79769706726 14.0402774811
-356.5 -14.0763158798 8.77517318726
-356.5 14.0763158798 8.77517318726
-356.5 -5.27861833572 15.7953128815
-356.5 5.27861833572 15.7953128815
-356.5 -15.835855484 5.26510429382
-356.5 15.835855484 5.26510429382
-356.5 -7.03815793991 15.7953128815
-356.5 7.03815793991 15.7953128815
-356.5 -15.835855484 7.02013874054
-356.5 15.835855484 7.02013874054
-356.5 -12.3167762756 12.2852430344
-356.5 12.3167762756 12.2852430344
-356.5 0 17.5503463745
-356.5 -10.5572366714 14.0402774811
-356.5 10.5572366714 14.0402774811
-356.5 -14.0763158798 10.5302085876
-356.5 14.0763158798 10.5302085876
-356.5 -17.5953941345 0
-356.5 17.5953941345 0
-356.5 -1.75953948498 17.5503463745
-356.5 1.75953948498 17.5503463745
-356.5 -17.5953941345 1.75503468513
-356.5 17.5953941345 1.75503468513
-356.5 -3.51907896996 17.5503463745
-356.5 3.51907896996 17.5503463745
-356.5 -17.5953941345 3.51006937027
-356.5 17.5953941345 3.51006937027
-356.5 -8.79769706726 15.7953128815
-356.5 8.79769706726 15.7953128815
-356.5 -15.835855484 8.77517318726
-356.5 15.835855484 8.77517318726
-356.5 -5.27861833572 17.5503463745
-356.5 5.27861833572 17.5503463745
-356.5 -17.5953941345 5.26510429382
-356.5 17.5953941345 5.26510429382
-356.5 -12.3167762756 14.0402774811
-356.5 12.3167762756 14.0402774811
-356.5 -14.0763158798 12.2852430344
-356.5 14.0763158798 12.2852430344
-356.5 -7.03815793991 17.5503463745
-356.5 7.03815793991 17.5503463745
-356.5 -17.5953941345 7.02013874054
-356.5 17.5953941345 7.02013874054
-356.5 -10.5572366714 15.7953128815
-356.5 10.5572366714 15.7953128815
-356.5 -15.835855484 10.5302085876
-356.5 15.835855484 10.5302085876
-356.5 0 19.3053817749
-356.5 -19.3549346924 0
-356.5 19.3549346924 0
-356.5 -1.75953948498 19.3053817749
-356.5 1.75953948498 19.3053817749
-356.5 -19.3549346924 1.75503468513
-356.5 19.3549346924 1.75503468513
-356.5 -3.51907896996 19.3053817749
-356.5 3.51907896996 19.3053817749
-356.5 -8.79769706726 17.5503463745
-356.5 8.79769706726 17.5503463745
-356.5 -17.5953941345 8.77517318726
-356.5 17.5953941345 8.77517318726
-356.5 -19.3549346924 3.51006937027
-356.5 19.3549346924 3.51006937027
-356.5 -14.0763158798 14.0402774811
-356.5 14.0763158798 14.0402774811
-356.5 -5.27861833572 19.3053817749
-356.5 5.27861833572 19.3053817749
-356.5 -12.3167762756 15.7953128815
-356.5 12.3167762756 15.7953128815
-356.5 -15.835855484 12.2852430344
-356.5 15.835855484 12.2852430344
-356.5 -19.3549346924 5.26510429382
-356.5 19.3549346924 5.26510429382
-356.5 -10.5572366714 17.5503463745
-356.5 10.5572366714 17.5503463745
-356.5 -17.5953941345 10.5302085876
-356.5 17.5953941345 10.5302085876
-356.5 -7.03815793991 19.3053817749
-356.5 7.03815793991 19.3053817749
-356.5 -19.3549346924 7.02013874054
-356.5 19.3549346924 7.02013874054
-356.5 0 21.0604171753
-356.5 -21.1144733429 0
-356.5 21.1144733429 0
-356.5 -1.75953948498 21.0604171753
-356.5 1.75953948498 21.0604171753
-356.5 -14.0763158798 15.7953128815
-356.5 14.0763158798 15.7953128815
-356.5 -15.835855484 14.0402774811
-356.5 15.835855484 14.0402774811
-356.5 -21.1144733429 1.75503468513
-356.5 21.1144733429 1.75503468513
-356.5 -8.79769706726 19.3053817749
-356.5 8.79769706726 19.3053817749
-356.5 -19.3549346924 8.77517318726
-356.5 19.3549346924 8.77517318726
-356.5 -3.51907896996 21.0604171753
-356.5 3.51907896996 21.0604171753
-356.5 -21.1144733429 3.51006937027
-356.5 21.1144733429 3.51006937027
-356.5 -12.3167762756 17.5503463745
-356.5 12.3167762756 17.5503463745
-356.5 -17.5953941345 12.2852430344
-356.5 17.5953941345 12.2852430344
-356.5 -5.27861833572 21.0604171753
-356.5 5.27861833572 21.0604171753
-356.5 -21.1144733429 5.26510429382
-356.5 21.1144733429 5.26510429382
-356.5 -10.5572366714 19.3053817749
-356.5 10.5572366714 19.3053817749
-356.5 -19.3549346924 10.5302085876
-356.5 19.3549346924 10.5302085876
-356.5 -7.03815793991 21.0604171753
-356.5 7.03815793991 21.0604171753
-356.5 -21.1144733429 7.02013874054
-356.5 21.1144733429 7.02013874054
-356.5 -15.835855484 15.7953128815
-356.5 15.835855484 15.7953128815
-356.5 -14.0763158798 17.5503463745
-356.5 14.0763158798 17.5503463745
-356.5 -17.5953941345 14.0402774811
-356.5 17.5953941345 14.0402774811
-356.5 0 22.8154506683
-356.5 -8.79769706726 21.0604171753
-356.5 8.79769706726 21.0604171753
-356.5 -21.1144733429 8.77517318726
-356.5 21.1144733429 8.77517318726
-356.5 -22.8740139008 0
-356.5 22.8740139008 0
-356.5 -1.75953948498 22.8154506683
-356.5 1.75953948498 22.8154506683
-356.5 -12.3167762756 19.3053817749
-356.5 12.3167762756 19.3053817749
-356.5 -19.3549346924 12.2852430344
-356.5 19.3549346924 12.2852430344
-356.5 -22.8740139008 1.75503468513
-356.5 22.8740139008 1.75503468513
-356.5 -3.51907896996 22.8154506683
-356.5 3.51907896996 22.8154506683
-356.5 -22.8740139008 3.51006937027
-356.5 22.8740139008 3.51006937027
-356.5 -5.27861833572 22.8154506683
-356.5 5.27861833572 22.8154506683
-356.5 -22.8740139008 5.26510429382
[...]
CELL_DATA 48576
FIELD attributes 1
p_rgh 1 48576 float
-0.110414296389 -0.219423398376 -0.232041418552 -0.206758692861 -0.139796361327 -0.305535137653 -0.0668210163713 -0.187755584717 -0.0361372157931 -0.309238940477
-0.134969204664 -0.143378943205 0.0147538753226 -0.14700974524 -0.156396523118 -0.178007632494 -0.0661109611392 -0.0952507033944 -0.132532954216 -0.00808351766318
-0.118748895824 -0.200971394777 -0.100297361612 -0.197514951229 -0.158263981342 -0.0560734942555 0.0321309380233 -0.203033000231 -0.156383544207 -0.224038422108
-0.209854066372 -0.22860313952 -0.134368985891 0.0250224713236 -0.105729162693 -0.097857825458 -0.21177905798 -0.176752567291 -0.148305729032 -0.231789797544
-0.219644829631 -0.0460529178381 -0.0659960359335 -0.0486056059599 -0.0465976111591 -0.253948032856 -0.233270525932 -0.142226547003 -0.208337366581 -0.198361292481
-0.190195947886 -0.105062119663 -0.0327854678035 -0.0814265012741 -0.354220986366 -0.329215019941 -0.323531150818 -0.221435174346 -0.31383728981 -0.116150870919
-0.244172886014 -0.22306792438 -0.0837739631534 -0.114659994841 -0.378635495901 -0.772518873215 -0.399939417839 -0.385194629431 -0.312242180109 -0.374688178301
-0.189535036683 -0.212017908692 -0.265375584364 -0.145280331373 -0.243126899004 -0.491564124823 -0.678937792778 -0.374431967735 -0.443638831377 -0.444489747286
-0.29985037446 -0.30819773674 -0.286963790655 -0.260090827942 -0.180296808481 -0.177975803614 -0.279494583607 -0.571645975113 -0.527545452118 -0.201910868287
-0.159842118621 -0.45582613349 -0.461772203445 -0.436760514975 -0.140932381153 -0.157290831208 -0.284274220467 -0.190397277474 -0.199205964804 -0.265962421894
-0.495510131121 -0.437434673309 -0.0881909951568 -0.119606025517 -0.184376522899 -0.384699374437 -0.476087331772 -0.480691939592 -0.359332829714 0.15539342165
-0.0341695584357 -0.180997774005 -0.259471774101 -0.323861539364 -0.398372381926 -0.373051226139 -0.208917751908 -0.100870519876 -0.15882717073 -0.199494048953
-0.0635834857821 -0.367817759514 -0.458756685257 -0.493144989014 -0.339735984802 0.182852685452 -0.0467040911317 -0.240593135357 -0.318166017532 -0.381933867931
-0.322245329618 -0.285832822323 -0.229560017586 -0.163557007909 -0.196639299393 -0.212543532252 0.183108061552 -0.0135662909597 -0.441468983889 -0.278509438038
-0.481892943382 -0.455504417419 0.332184106112 -0.230931162834 -0.285165071487 -0.308268517256 -0.26282402873 -0.256605505943 -0.275590062141 -0.236442729831
-0.165496379137 -0.251402169466 -0.273750156164 0.361013412476 0.152602002025 -0.0235864929855 -0.308707207441 -0.305999368429 -0.486811339855 -0.513569712639
0.315480679274 -0.275802463293 -0.230363368988 -0.211435005069 -0.182408541441 -0.187335044146 -0.252137452364 -0.209467083216 -0.221350163221 -0.301318883896
-0.313479214907 0.172694683075 0.431830912828 0.175220236182 0.0710690245032 -0.279996365309 -0.345799803734 -0.487726777792 -0.37327221036 0.152529537678
-0.224700763822 -0.206639900804 -0.207551047206 -0.114240400493 -0.183543801308 -0.223029777408 -0.253260850906 -0.304391890764 -0.340524613857 -0.374538689852
0.0277906619012 0.0275315232575 0.346701949835 0.278357386589 -0.00363603769802 -0.341780483723 -0.393158048391 -0.348924577236 -0.275618314743 0.734334051609
-0.243709459901 -0.259425580502 -0.189734578133 -0.138477519155 -0.170972958207 -0.265224635601 -0.328030258417 -0.324199587107 -0.402104049921 -0.288333237171
0.832374870777 -0.0523499660194 -0.225437372923 0.10938218981 0.124169588089 0.0867995023727 -0.377912431955 -0.285328030586 -0.267352074385 -0.288929104805
0.116492882371 -0.265832573175 -0.260349452496 -0.24723097682 -0.138546139002 -0.210153177381 -0.291935920715 -0.283597737551 -0.380191355944 -0.366334825754
-0.220249503851 -0.267982065678 0.478407204151 -0.133899345994 -0.261993169785 -0.0847756937146 0.0115330703557 0.0724954977632 -0.235382989049 -0.223913788795
-0.26991289854 -0.276081889868 -0.134677991271 -0.331978172064 -0.298277974129 -0.246642574668 -0.166167363524 -0.251489043236 -0.264878839254 -0.32375690341
-0.353632628918 -0.314520835876 -0.21663698554 -0.401662796736 -0.41212567687 0.233464419842 -0.107492186129 -0.165841951966 -0.209314778447 -0.201732292771
-0.0227683726698 -0.130660265684 -0.253662794828 -0.206631958485 -0.382201164961 -0.0178176071495 -0.330531775951 -0.302834451199 -0.211589545012 -0.261286020279
-0.2714381814 -0.300381839275 -0.29724419117 -0.294359385967 -0.314369648695 -0.266610443592 -0.0349674485624 -0.340374946594 -0.346502035856 0.118025504053
-0.100079998374 -0.234619155526 -0.290469795465 -0.334549546242 -0.108269408345 -0.105770371854 -0.205323830247 -0.221615850925 -0.394699811935 0.250686794519
-0.34484565258 -0.269645988941 -0.252421617508 -0.309858560562 -0.274693727493 -0.303561478853 -0.234643578529 -0.347546100616 -0.362974524498 -0.21491163969
0.125769436359 0.146334290504 -0.638065159321 -0.46130412817 -0.0519593209028 -0.13024328649 -0.282664865255 -0.394070059061 -0.258343368769 -0.201874941587
-0.121490336955 -0.144644111395 -0.206122204661 -0.376388430595 0.261777728796 -0.371172696352 -0.251078516245 -0.265438646078 -0.270641773939 -0.316414654255
-0.250060677528 -0.253069579601 -0.439745306969 -0.303145587444 -0.166678830981 0.126122012734 0.233449563384 -0.153465032578 -0.634048223495 -0.60692691803
-0.0623749047518 -0.18047234416 -0.393055588007 -0.448709189892 -0.144463717937 -0.152532607317 -0.132614701986 -0.131916791201 -0.197037011385 -0.399770617485
-0.0445579811931 -0.357072651386 -0.232716947794 -0.202439546585 -0.32355850935 -0.292934209108 -0.212352380157 -0.320405900478 -0.384315282106 -0.18841342628
-0.235344961286 -0.0464486405253 0.0781018361449 0.0491826944053 -0.120561301708 -0.502517521381 -0.549928069115 -0.194877967238 -0.285927116871 -0.609907329082
-0.296910762787 -0.0825027748942 -0.154498770833 -0.146342337132 -0.198290914297 -0.208724185824 -0.39586687088 0.704817116261 -0.302484482527 -0.174645766616
-0.227964356542 -0.329619973898 -0.254343390465 -0.246369227767 -0.313626229763 -0.266258537769 -0.210873544216 -0.21916615963 0.588686287403 -0.155641123652
0.0946400761604 0.17415715754 -0.0719285830855 -0.385468840599 -0.623660326004 -0.204167410731 -0.483635008335 -0.605506360531 -0.0834665969014 -0.209747284651
-0.148896977305 -0.173271253705 -0.239902853966 -0.199165344238 -0.360825389624 0.393343001604 -0.236054062843 -0.201669871807 -0.262209177017 -0.259627938271
-0.241316378117 -0.254603147507 -0.327831834555 -0.2638245821 -0.15527959168 -0.166872188449 0.0223426688462 0.50930505991 -0.177628993988 0.356556117535
0.0446627624333 -0.0729611366987 -0.189000934362 -0.520880222321 -0.279257655144 -0.584911286831 -0.51455104351 -0.285211652517 -0.360454916954 -0.178497239947
-0.193685248494 -0.20327091217 -0.209837421775 -0.299370318651 -0.10673918575 -0.268260896206 -0.264254450798 -0.208475440741 -0.22442945838 -0.232934787869
-0.268060445786 -0.361350804567 -0.239189743996 -0.110332496464 -0.298408597708 -0.424017995596 0.137800201774 0.264105916023 0.0952403396368 0.285892724991
-0.119558088481 -0.0205811206251 0.0180412195623 -0.42490658164 -0.348086029291 -0.580995678902 -0.532568097115 -0.392977029085 -0.463805109262 -0.267472237349
-0.179278641939 -0.149793371558 -0.211458787322 -0.30543038249 0.295159518719 -0.34205326438 -0.205423548818 -0.173629775643 -0.238589674234 -0.195583209395
-0.321129590273 -0.337584346533 -0.246014326811 -0.244505509734 -0.366931378841 0.442070037127 -0.251876950264 0.172226265073 0.324379831553 -0.0309558045119
0.170372933149 -0.0712343156338 0.0183391142637 0.0169825349003 -0.374749898911 -0.374299764633 -0.529255747795 -0.535015702248 -0.49551910162 -0.584040522575
-0.299590200186 -0.123302444816 -0.2041015625 -0.287531346083 -0.338894724846 0.529902994633 -0.237499639392 -0.155421838164 -0.185209035873 -0.167709246278
-0.217198252678 -0.348483383656 -0.292111366987 -0.279014497995 -0.342902302742 -0.401334196329 0.553087353706 0.688927650452 -0.181271150708 0.326820492744
0.0337725616992 -0.0159889571369 0.0729902088642 -0.0211996939033 0.135866567492 -0.031393148005 -0.442863851786 -0.301374047995 -0.385217100382 -0.733736693859
-0.699638724327 -0.623095929623 -0.253951042891 -0.200262665749 -0.29803609848 -0.325896263123 -0.202765792608 0.289896130562 -0.155796691775 -0.184391871095
-0.132826775312 -0.144360914826 -0.234564706683 -0.305771172047 -0.244002357125 -0.282581984997 -0.355857253075 -0.422362357378 0.29092913866 0.447784334421
0.710595786572 -0.0977066382766 0.190229400992 -0.0302688907832 -0.209733650088 -0.184628322721 0.069911763072 0.156874030828 -0.14194495976 -0.338672697544
-0.160891443491 -0.471200853586 -0.861539721489 -0.760710120201 -0.565859735012 -0.252700358629 -0.256794691086 -0.328138530254 -0.170952737331 -0.139598757029
0.368757486343 -0.193439930677 -0.14520663023 -0.103461936116 -0.159767612815 -0.20335419476 -0.213172212243 -0.244923919439 -0.233549147844 -0.31894659996
-0.406003803015 0.377063512802 0.329282939434 0.297025263309 0.630180597305 -0.06656460464 0.196941450238 -0.120249025524 -0.523960590363 -0.276008725166
0.00110897305422 -0.0194559823722 -0.159802734852 -0.239724889398 -0.340674549341 -0.619872033596 -0.717947840691 -0.831677317619 -0.494656085968 -0.328875392675
-0.268937200308 -0.184445306659 -0.128826573491 -0.193684577942 0.282427608967 -0.148908287287 -0.132387146354 -0.101980052888 -0.153977587819 -0.125898480415
-0.208132863045 -0.246777236462 -0.14501875639 -0.320071130991 -0.426539778709 0.256581813097 0.35626667738 0.284255176783 0.163169100881 0.507779538631
-0.0583368130028 0.154535964131 -0.208466306329 -0.666775166988 -0.0482684746385 -0.0673042163253 -0.0223224908113 -0.11461379379 -0.375280976295 -0.553106307983
-0.335882842541 -0.631222844124 -0.749798715115 -0.578009128571 -0.341860830784 -0.19950966537 -0.136393338442 -0.178928926587 -0.128879606724 0.148019224405
-0.118837542832 -0.128861278296 -0.120954245329 -0.111642859876 -0.133556738496 -0.253280967474 -0.185215353966 -0.123200468719 -0.327337861061 -0.411074459553
0.0771381482482 0.274430930614 0.23367702961 0.234676092863 0.107603162527 0.49660935998 0.0279639214277 0.121595069766 -0.1237475425 -0.579188108444
0.241531759501 0.0150984991342 0.123110324144 -0.166732802987 -0.546241641045 -0.165715008974 -0.0906429365277 -0.680881559849 -0.558099269867 -0.73452848196
-0.235177099705 -0.20437297225 -0.199604988098 -0.0993567407131 -0.0696164295077 0.305651217699 -0.129259869456 -0.100465729833 -0.137949690223 -0.0862069576979
-0.20494197309 -0.228534251451 -0.187056452036 -0.103148072958 -0.338601917028 -0.33737167716 0.260029792786 0.0679581165314 0.300373971462 0.204842895269
0.184322789311 0.15436963737 0.526370763779 0.064658395946 0.215467825532 0.0349573902786 -0.419475585222 0.240561813116 0.112428583205 0.0424180179834
-0.187884986401 -0.397275745869 0.132100820541 -0.41413345933 -0.413941562176 -0.715655207634 -0.699118435383 -0.136363729835 -0.282035440207 -0.132121756673
-0.0418925844133 -0.0775102004409 0.111150734127 -0.133937820792 -0.105496272445 -0.142144560814 -0.104760415852 -0.192341551185 -0.239898622036 -0.142031997442
-0.153631865978 -0.349966198206 -0.243925049901 0.0455325879157 0.391664266586 0.00803507678211 0.342260837555 0.219422474504 0.238426610827 0.144518002868
0.457597255707 0.0932083204389 0.296197712421 0.139456793666 -0.300494164228 0.0690370425582 0.178787350655 -0.063541598618 -0.116489432752 -0.219118788838
-0.110616594553 -0.373977541924 -0.278061658144 -0.792053282261 -0.404945671558 -0.192675635219 -0.201097071171 -0.0439292639494 -0.0552200041711 -0.10551109165
0.616198182106 -0.1182436198 -0.176497802138 -0.156605184078 -0.114115178585 -0.171944260597 -0.183785170317 -0.142278790474 -0.228686779737 -0.290091991425
-0.217910781503 0.660067558289 0.0439659357071 0.38508695364 0.00169851013925 0.243374630809 0.297230452299 0.314746558666 0.151716843247 0.334272503853
0.171456485987 0.32704693079 0.157768324018 -0.123660370708 0.0435931794345 0.06736728549 -0.0908802524209 -0.0250674746931 -0.274660348892 -0.168337360024
-0.112542018294 -0.296556174755 -0.513124585152 -0.283946990967 -0.183725968003 -0.0970163717866 -0.0356424562633 -0.161064431071 -0.0305709056556 0.0699069648981
-0.12252445519 -0.251948356628 -0.188925012946 -0.136299014091 -0.152953281999 -0.106623768806 -0.167366057634 -0.202155798674 -0.276871263981 -0.222064509988
-0.0388454310596 0.596208155155 0.0996789634228 0.293040812016 0.0876544639468 0.119360551238 0.388777047396 0.365058392286 0.183042690158 0.275307416916
0.221236988902 0.332077294588 0.167542353272 0.122487328947 0.0136305848137 -0.0243061985821 -0.0132295824587 -0.0469370037317 -0.341004014015 0.0855062156916
-0.134267300367 -0.190761566162 -0.297979235649 -0.193154007196 -0.0987032726407 -0.126210197806 -0.141043484211 -0.134515359998 0.0143648274243 -0.753675043583
-0.146542981267 -0.245525062084 -0.186296895146 -0.173260524869 -0.0950466915965 -0.0607931949198 -0.137969911098 -0.195901468396 -0.270358115435 -0.16805139184
-0.924370110035 -0.258027911186 0.616329729557 -0.0489650964737 0.360596239567 0.130586877465 0.109146527946 0.330644935369 0.394471019506 0.21985834837
0.201334223151 0.253052771091 0.411580383778 0.213156998158 0.162022173405 -0.0444904044271 -0.0265070069581 -0.00149496085942 -0.0156238293275 -0.135041818023
0.0330361276865 -0.190652191639 -0.0584352836013 -0.179391607642 -0.0659230425954 -0.123185582459 -0.167031124234 -0.188783600926 -0.0622846335173 0.0136402333155
0.792794108391 -0.0837267190218 -0.226178228855 -0.178450897336 -0.149647578597 -0.0469707921147 -0.00638147816062 -0.103975117207 -0.223832994699 -0.206581577659
-0.0646657571197 0.52094656229 -1.04915726185 -0.355378180742 0.540501177311 -0.147036597133 0.493973821402 0.118375122547 0.113426662982 0.222043856978
0.424964010715 0.249786585569 0.182047411799 0.21989351511 0.502618730068 0.15778195858 -0.0247162710875 0.0850033983588 -0.0557065680623 0.0906779095531
0.0144512457773 -0.0337185822427 -0.0946927368641 -0.125848338008 -0.00236383453012 -0.137261867523 -0.034909196198 -0.204387739301 -0.128333643079 -0.164865225554
-0.0410078428686 0.100878350437 0.811998605728 -0.116396956146 -0.228450983763 -0.160643294454 -0.0831887423992 0.00326215801761 0.0258120186627 -0.10442263633
-0.169231086969 -0.115009337664 -0.0544876381755 0.368868499994 0.410568237305 -0.946384072304 -0.505382359028 0.386811614037 -0.0514525845647 0.581307709217
0.169420704246 0.0502526089549 0.212689653039 0.481425315142 0.32711699605 0.177218958735 0.132769674063 0.405037254095 0.0708924755454 0.0487591512501
0.255314558744 -0.0252549946308 0.0971425175667 0.0579020902514 0.000842221430503 -0.06829508394 -0.0135307088494 -0.137957811356 -0.164563909173 -0.138421997428
-0.144731506705 -0.0704179555178 -0.175872683525 0.0291792657226 0.0736937969923 -0.188613012433 -0.198436722159 -0.191456273198 -0.120296955109 -0.0330396033823
0.0590301826596 0.00656619202346 -0.0376154519618 -0.13980281353 -0.0341680645943 -0.129227623343 -0.449910163879 0.233240127563 0.204142138362 -0.931107163429
-0.75114440918 0.319262444973 0.0764115601778 0.57599902153 0.2448720783 -0.00140706752427 0.288720041513 0.466247826815 0.384314000607 0.145726248622
0.0685608759522 0.285690009594 0.120421521366 0.176190197468 0.235560283065 0.119972713292 0.0154448291287 0.0801249518991 0.0555890314281 -0.00961158052087
-0.0825423300266 -0.254464715719 -0.227447614074 -0.129696637392 0.0108020221815 -0.0741008222103 -0.0919821485877 0.0194705426693 -0.0638291686773 0.365336924791
-0.217077508569 -0.102973237634 -0.0609835200012 0.00532127683982 0.0635622292757 0.0419363565743 -0.0279962569475 -0.0784162953496 -0.0012949652737 -0.199841856956
0.380784422159 -0.18651664257 0.376421302557 -0.034369379282 -1.00417196751 -0.787735044956 0.288906127214 0.119341939688 0.455535054207 0.337518393993
0.0130189862102 0.380827903748 0.372214496136 0.302814364433 0.220849364996 0.0576749183238 0.284995883703 0.179090902209 0.23673158884 0.160924643278
0.0798955112696 0.0335603803396 0.0324322171509 0.0577976405621 -0.138454824686 -0.165450155735 -0.238972038031 -0.169171735644 0.0318672284484 0.0609482005239
-0.00217284914106 -0.0167162362486 -0.0815384984016 -0.178693726659 0.473738968372 -0.150065377355 -0.00677921110764 -0.00292904744856 0.0343165621161 0.0857279747725
0.0271156206727 -0.0234078615904 0.0102818189189 -0.0970420017838 -0.149972766638 0.50177693367 0.395959854126 -0.152656018734 0.482027947903 -0.174963414669
-0.831189930439 -0.556407094002 0.206342369318 0.150268226862 0.411336064339 0.319765836 0.049919500947 0.456058055162 0.294756889343 0.192342564464
0.295190125704 0.0637769326568 0.29829376936 0.329763025045 0.14437520504 0.06786249578 0.11477843672 -0.0374968573451 0.0708315521479 -0.16531458497
-0.280138611794 -0.128734767437 -0.152494624257 0.0148714641109 0.0499811396003 0.0880657806993 0.102352537215 -0.0617504753172 -0.183390587568 -0.205521911383
0.659274339676 -0.0270102154464 0.0548391416669 0.0358281545341 0.0703837275505 0.0781625658274 -0.00819509290159 0.0570482499897 -0.0673107281327 -0.0606294833124
-0.147980391979 0.596664607525 0.458943724632 0.490375488997 -0.0720989108086 0.34091886878 -0.062757268548 -0.668953299522 -0.37994748354 0.143939554691
0.168274492025 0.440253913403 0.295536309481 0.162668436766 0.385298669338 0.392702072859 0.116369865835 0.330017596483 0.0807053595781 0.33878365159
0.381658136845 0.0407919771969 0.0762615278363 0.128238275647 -0.0751822292805 0.0204055588692 -0.38108637929 -0.18839558959 -0.0176178049296 0.012764676474
0.0281721558422 -0.035673584789 0.118382915854 0.0980649664998 -0.137330532074 -0.218550980091 -0.143899962306 0.418933957815 0.066268876195 0.0881025642157
0.0542656183243 0.0804595649242 0.0139490831643 0.0624249130487 -0.0228006672114 -0.0769215151668 -0.0403841622174 0.510176897049 0.620145380497 0.398229598999
0.518397331238 0.0286211445928 0.361516952515 -0.0890330448747 -0.69529825449 -0.415674060583 0.235027164221 -0.0116362208501 0.510631263256 0.416540980339
0.176313564181 0.266324043274 0.565144300461 0.0479007251561 0.339170902967 0.1559047997 0.321672946215 0.370181918144 0.0505613312125 0.0657817497849
0.0363378413022 -0.0665179938078 -0.0740768238902 -0.269869446754 -0.0551266409457 0.168057978153 0.0268734060228 -0.113179810345 -0.0825447514653 0.0519546084106
0.0387922562659 -0.13385976851 -0.211894080043 -0.0594938844442 -0.668110370636 0.154068589211 0.0558004230261 0.0655269920826 0.0300984475762 0.032735414803
0.0276374351233 -0.116372354329 -0.051904655993 -0.62264418602 0.466527074575 0.570968568325 0.314162611961 0.618253409863 0.158824875951 0.272731155157
-0.203263297677 -0.634082615376 -0.467396318913 0.377264738083 -0.193804308772 0.491173177958 0.586498200893 0.116171486676 0.111476205289 0.553275942802
0.072465389967 0.277233868837 0.19913995266 0.269218146801 0.476404815912 0.0227868743241 0.0448318123817 -0.0192745774984 -0.0681910142303 -0.112605422735
-0.167834579945 0.00142396870069 0.204985722899 -0.0953808352351 -0.178602695465 -0.135298207402 -0.0421784222126 0.0562234595418 -0.135776147246 -0.158537119627
0.0951568856835 0.159622490406 0.104992188513 0.0603338219225 0.0196697730571 0.0503891482949 -0.0277485735714 -0.0686797872186 -0.128924831748 0.0632564350963
-0.745116770267 0.446168959141 0.606854975224 0.172009661794 0.682643949986 0.160658121109 0.238589584827 -0.112862557173 -0.59550344944 -0.370375692844
0.457899600267 -0.101594537497 0.38660427928 0.604737281799 0.341532319784 -0.0465321019292 0.506837427616 0.178745985031 0.268933653831 0.191145092249
0.316892415285 0.530300498009 -0.0018299119547 0.115471243858 -0.0637322664261 -0.0872806832194 -0.133534133434 -0.195089429617 0.0347549915314 0.0991259738803
-0.157043412328 -0.120683453977 -0.218801781535 0.00746043259278 0.0174746699631 -0.101287312806 0.0146085657179 0.102438010275 1.30950331688 0.0694349184632